LAMMPS data file via write_data, version 7 Aug 2019, timestep = 46

8640 atoms
4 atom types

9.6048671111172335e-01 5.2826769111144820e+01 xlo xhi
5.5453726121341329e-01 5.0462890770420614e+01 ylo yhi
1.1763511734738601e+00 1.1253759559566578e+02 zlo zhi

Masses

1 196.966
2 196.966
3 22
4 35

Atoms # full

114 0 1 0.0000000000000000e+00 8.6443804000055859e+00 6.6544471345609866e+00 2.5424168516787042e+00 0 0 0
116 0 1 0.0000000000000000e+00 7.2036503333380031e+00 4.1590294591006289e+00 2.5424168516787029e+00 0 0 0
118 0 1 0.0000000000000000e+00 2.8814601333352496e+00 6.6544471345609892e+00 2.5424168516786976e+00 0 0 0
119 0 1 0.0000000000000000e+00 4.3221902000028347e+00 4.1590294591006289e+00 2.5424168516786967e+00 0 0 0
120 0 1 0.0000000000000000e+00 1.4407300666676686e+00 4.1590294591006272e+00 2.5424168516786967e+00 0 0 0
121 0 1 0.0000000000000000e+00 5.7629202666704193e+00 6.6544471345609892e+00 2.5424168516787033e+00 0 0 0
122 0 1 0.0000000000000000e+00 5.7629202666704167e+00 8.3180589182012259e+00 4.8824259022897634e+00 0 0 0
123 0 1 0.0000000000000000e+00 7.2036503333380022e+00 5.8226412427408656e+00 4.8824259022897643e+00 0 0 0
124 0 1 0.0000000000000000e+00 4.3221902000028347e+00 5.8226412427408656e+00 4.8824259022897651e+00 0 0 0
125 0 1 0.0000000000000000e+00 8.6443804000055877e+00 8.3180589182012259e+00 4.8824259022897643e+00 0 0 0
128 0 1 0.0000000000000000e+00 7.2036503333380040e+00 7.4862530263811049e+00 7.2224363851916413e+00 0 0 0
130 0 1 0.0000000000000000e+00 1.4407300666676659e+00 5.8226412427408638e+00 4.8824259022897634e+00 0 0 0
131 0 1 0.0000000000000000e+00 2.8814601333352523e+00 8.3180589182012241e+00 4.8824259022897660e+00 0 0 0
133 0 1 0.0000000000000000e+00 4.3221902000028347e+00 7.4862530263811040e+00 7.2224363851916413e+00 0 0 0
134 0 1 0.0000000000000000e+00 1.4407300666676688e+00 7.4862530263811022e+00 7.2224363851916378e+00 0 0 0
156 0 1 0.0000000000000000e+00 5.7629202666704176e+00 1.6636117836402693e+00 2.5424168516787025e+00 0 0 0
157 0 1 0.0000000000000000e+00 8.6443804000055859e+00 1.6636117836402688e+00 2.5424168516786949e+00 0 0 0
158 0 1 0.0000000000000000e+00 8.6443804000055877e+00 3.3272235672805084e+00 4.8824259022897625e+00 0 0 0
160 0 1 0.0000000000000000e+00 7.2036503333380049e+00 8.3180589182014975e-01 4.8824259022897643e+00 0 0 0
162 0 1 0.0000000000000000e+00 2.8814601333352514e+00 1.6636117836402691e+00 2.5424168516786994e+00 0 0 0
163 0 1 0.0000000000000000e+00 2.8814601333352514e+00 3.3272235672805066e+00 4.8824259022897625e+00 0 0 0
164 0 1 0.0000000000000000e+00 4.3221902000028347e+00 8.3180589182014930e-01 4.8824259022897625e+00 0 0 0
165 0 1 0.0000000000000000e+00 1.4407300666676690e+00 8.3180589182015052e-01 4.8824259022897634e+00 0 0 0
166 0 1 0.0000000000000000e+00 5.7629202666704167e+00 3.3272235672805093e+00 4.8824259022897643e+00 0 0 0
167 0 1 0.0000000000000000e+00 5.7629202666704185e+00 4.9908353509207446e+00 7.2224363851916396e+00 0 0 0
168 0 1 0.0000000000000000e+00 7.2036503333380031e+00 2.4954176754603861e+00 7.2224363851916387e+00 0 0 0
169 0 1 0.0000000000000000e+00 4.3221902000028338e+00 2.4954176754603843e+00 7.2224363851916369e+00 0 0 0
170 0 1 0.0000000000000000e+00 8.6443804000055859e+00 4.9908353509207437e+00 7.2224363851916404e+00 0 0 0
175 0 1 0.0000000000000000e+00 1.4407300666676681e+00 2.4954176754603856e+00 7.2224363851916387e+00 0 0 0
176 0 1 0.0000000000000000e+00 2.8814601333352496e+00 4.9908353509207446e+00 7.2224363851916378e+00 0 0 0
115 0 1 0.0000000000000000e+00 1.0085110466673175e+01 4.1590294591006289e+00 2.5424168516786976e+00 0 0 0
117 0 1 0.0000000000000000e+00 1.0085110466673171e+01 5.8226412427408674e+00 4.8824259022897625e+00 0 0 0
127 0 1 0.0000000000000000e+00 1.0085110466673175e+01 7.4862530263811049e+00 7.2224363851916396e+00 0 0 0
159 0 1 0.0000000000000000e+00 1.0085110466673170e+01 8.3180589182014830e-01 4.8824259022897634e+00 0 0 0
161 0 1 0.0000000000000000e+00 1.0085110466673173e+01 2.4954176754603861e+00 7.2224363851916396e+00 0 0 0
973 0 1 0.0000000000000000e+00 1.4407300666675930e+01 6.6544471345609857e+00 2.5424168516787025e+00 0 0 0
974 0 1 0.0000000000000000e+00 1.5848030733343515e+01 4.1590294591006280e+00 2.5424168516786994e+00 0 0 0
975 0 1 0.0000000000000000e+00 1.2966570600008344e+01 4.1590294591006263e+00 2.5424168516786980e+00 0 0 0
976 0 1 0.0000000000000000e+00 1.7288760800011101e+01 6.6544471345609866e+00 2.5424168516787011e+00 0 0 0
977 0 1 0.0000000000000000e+00 1.7288760800011101e+01 8.3180589182012259e+00 4.8824259022897687e+00 0 0 0
979 0 1 0.0000000000000000e+00 1.5848030733343515e+01 5.8226412427408674e+00 4.8824259022897678e+00 0 0 0
985 0 1 0.0000000000000000e+00 1.1525840533340757e+01 6.6544471345609857e+00 2.5424168516786962e+00 0 0 0
986 0 1 0.0000000000000000e+00 1.1525840533340759e+01 8.3180589182012277e+00 4.8824259022897651e+00 0 0 0
987 0 1 0.0000000000000000e+00 1.2966570600008344e+01 5.8226412427408665e+00 4.8824259022897678e+00 0 0 0
988 0 1 0.0000000000000000e+00 1.4407300666675930e+01 8.3180589182012277e+00 4.8824259022897651e+00 0 0 0
990 0 1 0.0000000000000000e+00 1.5848030733343515e+01 7.4862530263811058e+00 7.2224363851916422e+00 0 0 0
991 0 1 0.0000000000000000e+00 1.2966570600008346e+01 7.4862530263811058e+00 7.2224363851916431e+00 0 0 0
1017 0 1 0.0000000000000000e+00 1.7288760800011101e+01 1.6636117836402708e+00 2.5424168516786976e+00 0 0 0
1023 0 1 0.0000000000000000e+00 1.1525840533340759e+01 1.6636117836402682e+00 2.5424168516787016e+00 0 0 0
1024 0 1 0.0000000000000000e+00 1.4407300666675930e+01 1.6636117836402700e+00 2.5424168516786962e+00 0 0 0
1025 0 1 0.0000000000000000e+00 1.4407300666675932e+01 3.3272235672805071e+00 4.8824259022897643e+00 0 0 0
1026 0 1 0.0000000000000000e+00 1.5848030733343517e+01 8.3180589182015008e-01 4.8824259022897651e+00 0 0 0
1027 0 1 0.0000000000000000e+00 1.2966570600008342e+01 8.3180589182014975e-01 4.8824259022897634e+00 0 0 0
1028 0 1 0.0000000000000000e+00 1.7288760800011104e+01 3.3272235672805097e+00 4.8824259022897651e+00 0 0 0
1029 0 1 0.0000000000000000e+00 1.7288760800011104e+01 4.9908353509207464e+00 7.2224363851916431e+00 0 0 0
1031 0 1 0.0000000000000000e+00 1.5848030733343515e+01 2.4954176754603883e+00 7.2224363851916413e+00 0 0 0
1037 0 1 0.0000000000000000e+00 1.1525840533340759e+01 3.3272235672805079e+00 4.8824259022897651e+00 0 0 0
1038 0 1 0.0000000000000000e+00 1.1525840533340759e+01 4.9908353509207464e+00 7.2224363851916440e+00 0 0 0
1039 0 1 0.0000000000000000e+00 1.2966570600008344e+01 2.4954176754603901e+00 7.2224363851916422e+00 0 0 0
1040 0 1 0.0000000000000000e+00 1.4407300666675930e+01 4.9908353509207473e+00 7.2224363851916440e+00 0 0 0
969 0 1 0.0000000000000000e+00 2.0170220933346279e+01 6.6544471345609910e+00 2.5424168516787007e+00 0 0 0
970 0 1 0.0000000000000000e+00 2.1610951000013863e+01 4.1590294591006316e+00 2.5424168516787060e+00 0 0 0
971 0 1 0.0000000000000000e+00 1.8729490866678692e+01 4.1590294591006272e+00 2.5424168516787007e+00 0 0 0
972 0 1 0.0000000000000000e+00 2.1610951000013866e+01 5.8226412427408700e+00 4.8824259022897687e+00 0 0 0
978 0 1 0.0000000000000000e+00 1.8729490866678692e+01 5.8226412427408674e+00 4.8824259022897678e+00 0 0 0
980 0 1 0.0000000000000000e+00 2.0170220933346279e+01 8.3180589182012259e+00 4.8824259022897660e+00 0 0 0
982 0 1 0.0000000000000000e+00 2.1610951000013866e+01 7.4862530263811076e+00 7.2224363851916413e+00 0 0 0
983 0 1 0.0000000000000000e+00 1.8729490866678692e+01 7.4862530263811049e+00 7.2224363851916413e+00 0 0 0
1018 0 1 0.0000000000000000e+00 2.0170220933346279e+01 1.6636117836402691e+00 2.5424168516787078e+00 0 0 0
1019 0 1 0.0000000000000000e+00 2.0170220933346279e+01 3.3272235672805088e+00 4.8824259022897678e+00 0 0 0
1020 0 1 0.0000000000000000e+00 2.1610951000013866e+01 8.3180589182014653e-01 4.8824259022897705e+00 0 0 0
1021 0 1 0.0000000000000000e+00 1.8729490866678688e+01 8.3180589182014697e-01 4.8824259022897696e+00 0 0 0
1022 0 1 0.0000000000000000e+00 2.1610951000013870e+01 2.4954176754603892e+00 7.2224363851916396e+00 0 0 0
1030 0 1 0.0000000000000000e+00 1.8729490866678692e+01 2.4954176754603870e+00 7.2224363851916413e+00 0 0 0
1032 0 1 0.0000000000000000e+00 2.0170220933346279e+01 4.9908353509207473e+00 7.2224363851916431e+00 0 0 0
1914 0 1 0.0000000000000000e+00 2.5933141200016632e+01 6.6544471345609875e+00 2.5424168516786994e+00 0 0 0
1916 0 1 0.0000000000000000e+00 2.4492411133349044e+01 4.1590294591006298e+00 2.5424168516787020e+00 0 0 0
1924 0 1 0.0000000000000000e+00 2.3051681066681454e+01 6.6544471345609892e+00 2.5424168516787002e+00 0 0 0
1925 0 1 0.0000000000000000e+00 2.3051681066681454e+01 8.3180589182012259e+00 4.8824259022897643e+00 0 0 0
1926 0 1 0.0000000000000000e+00 2.4492411133349044e+01 5.8226412427408674e+00 4.8824259022897678e+00 0 0 0
1927 0 1 0.0000000000000000e+00 2.5933141200016635e+01 8.3180589182012277e+00 4.8824259022897669e+00 0 0 0
1930 0 1 0.0000000000000000e+00 2.4492411133349041e+01 7.4862530263811049e+00 7.2224363851916396e+00 0 0 0
1958 0 1 0.0000000000000000e+00 2.3051681066681454e+01 1.6636117836402684e+00 2.5424168516787029e+00 0 0 0
1959 0 1 0.0000000000000000e+00 2.5933141200016628e+01 1.6636117836402733e+00 2.5424168516787007e+00 0 0 0
1960 0 1 0.0000000000000000e+00 2.5933141200016632e+01 3.3272235672805088e+00 4.8824259022897678e+00 0 0 0
1962 0 1 0.0000000000000000e+00 2.4492411133349041e+01 8.3180589182014919e-01 4.8824259022897687e+00 0 0 0
1970 0 1 0.0000000000000000e+00 2.3051681066681457e+01 3.3272235672805075e+00 4.8824259022897678e+00 0 0 0
1971 0 1 0.0000000000000000e+00 2.3051681066681457e+01 4.9908353509207455e+00 7.2224363851916422e+00 0 0 0
1972 0 1 0.0000000000000000e+00 2.4492411133349044e+01 2.4954176754603887e+00 7.2224363851916413e+00 0 0 0
1973 0 1 0.0000000000000000e+00 2.5933141200016635e+01 4.9908353509207473e+00 7.2224363851916413e+00 0 0 0
30 0 1 0.0000000000000000e+00 8.6443804000055895e+00 1.6636117836402430e+01 2.5424168516786971e+00 0 0 0
32 0 1 0.0000000000000000e+00 7.2036503333380022e+00 1.4140700160942067e+01 2.5424168516787042e+00 0 0 0
34 0 1 0.0000000000000000e+00 2.8814601333352536e+00 1.6636117836402427e+01 2.5424168516787011e+00 0 0 0
35 0 1 0.0000000000000000e+00 4.3221902000028365e+00 1.4140700160942064e+01 2.5424168516787016e+00 0 0 0
36 0 1 0.0000000000000000e+00 1.4407300666676672e+00 1.4140700160942064e+01 2.5424168516787029e+00 0 0 0
37 0 1 0.0000000000000000e+00 5.7629202666704202e+00 1.6636117836402430e+01 2.5424168516786994e+00 0 0 0
39 0 1 0.0000000000000000e+00 7.2036503333380031e+00 1.5804311944582304e+01 4.8824259022897616e+00 0 0 0
40 0 1 0.0000000000000000e+00 4.3221902000028365e+00 1.5804311944582302e+01 4.8824259022897598e+00 0 0 0
46 0 1 0.0000000000000000e+00 1.4407300666676657e+00 1.5804311944582304e+01 4.8824259022897651e+00 0 0 0
73 0 1 0.0000000000000000e+00 5.7629202666704167e+00 1.1645282485481706e+01 2.5424168516786985e+00 0 0 0
74 0 1 0.0000000000000000e+00 7.2036503333380031e+00 9.1498648100213451e+00 2.5424168516786971e+00 0 0 0
75 0 1 0.0000000000000000e+00 4.3221902000028303e+00 9.1498648100213451e+00 2.5424168516786980e+00 0 0 0
76 0 1 0.0000000000000000e+00 8.6443804000055877e+00 1.1645282485481705e+01 2.5424168516786976e+00 0 0 0
77 0 1 0.0000000000000000e+00 8.6443804000055842e+00 1.3308894269121947e+01 4.8824259022897651e+00 0 0 0
79 0 1 0.0000000000000000e+00 7.2036503333380022e+00 1.0813476593661584e+01 4.8824259022897625e+00 0 0 0
81 0 1 0.0000000000000000e+00 1.4407300666676688e+00 9.1498648100213487e+00 2.5424168516787020e+00 0 0 0
82 0 1 0.0000000000000000e+00 2.8814601333352505e+00 1.1645282485481706e+01 2.5424168516786954e+00 0 0 0
83 0 1 0.0000000000000000e+00 2.8814601333352532e+00 1.3308894269121943e+01 4.8824259022897589e+00 0 0 0
84 0 1 0.0000000000000000e+00 4.3221902000028338e+00 1.0813476593661584e+01 4.8824259022897616e+00 0 0 0
85 0 1 0.0000000000000000e+00 1.4407300666676703e+00 1.0813476593661585e+01 4.8824259022897634e+00 0 0 0
86 0 1 0.0000000000000000e+00 5.7629202666704185e+00 1.3308894269121945e+01 4.8824259022897580e+00 0 0 0
87 0 1 0.0000000000000000e+00 5.7629202666704202e+00 1.4972506052762181e+01 7.2224363851916387e+00 0 0 0
88 0 1 0.0000000000000000e+00 7.2036503333380040e+00 1.2477088377301822e+01 7.2224363851916396e+00 0 0 0
89 0 1 0.0000000000000000e+00 4.3221902000028356e+00 1.2477088377301822e+01 7.2224363851916378e+00 0 0 0
90 0 1 0.0000000000000000e+00 8.6443804000055877e+00 1.4972506052762183e+01 7.2224363851916404e+00 0 0 0
95 0 1 0.0000000000000000e+00 1.4407300666676661e+00 1.2477088377301824e+01 7.2224363851916396e+00 0 0 0
96 0 1 0.0000000000000000e+00 2.8814601333352510e+00 1.4972506052762183e+01 7.2224363851916378e+00 0 0 0
126 0 1 0.0000000000000000e+00 8.6443804000055895e+00 9.9816707018414643e+00 7.2224363851916413e+00 0 0 0
132 0 1 0.0000000000000000e+00 2.8814601333352532e+00 9.9816707018414625e+00 7.2224363851916369e+00 0 0 0
135 0 1 0.0000000000000000e+00 5.7629202666704202e+00 9.9816707018414625e+00 7.2224363851916387e+00 0 0 0
31 0 1 0.0000000000000000e+00 1.0085110466673173e+01 1.4140700160942066e+01 2.5424168516786998e+00 0 0 0
33 0 1 0.0000000000000000e+00 1.0085110466673173e+01 1.5804311944582304e+01 4.8824259022897669e+00 0 0 0
72 0 1 0.0000000000000000e+00 1.0085110466673171e+01 9.1498648100213469e+00 2.5424168516787069e+00 0 0 0
78 0 1 0.0000000000000000e+00 1.0085110466673173e+01 1.0813476593661585e+01 4.8824259022897669e+00 0 0 0
80 0 1 0.0000000000000000e+00 1.0085110466673173e+01 1.2477088377301822e+01 7.2224363851916440e+00 0 0 0
877 0 1 0.0000000000000000e+00 1.4407300666675932e+01 1.6636117836402427e+01 2.5424168516786976e+00 0 0 0
878 0 1 0.0000000000000000e+00 1.5848030733343515e+01 1.4140700160942069e+01 2.5424168516786994e+00 0 0 0
879 0 1 0.0000000000000000e+00 1.2966570600008342e+01 1.4140700160942066e+01 2.5424168516786989e+00 0 0 0
880 0 1 0.0000000000000000e+00 1.7288760800011101e+01 1.6636117836402427e+01 2.5424168516786976e+00 0 0 0
883 0 1 0.0000000000000000e+00 1.5848030733343517e+01 1.5804311944582306e+01 4.8824259022897598e+00 0 0 0
889 0 1 0.0000000000000000e+00 1.1525840533340755e+01 1.6636117836402427e+01 2.5424168516787056e+00 0 0 0
891 0 1 0.0000000000000000e+00 1.2966570600008342e+01 1.5804311944582304e+01 4.8824259022897678e+00 0 0 0
922 0 1 0.0000000000000000e+00 1.7288760800011101e+01 1.1645282485481706e+01 2.5424168516786994e+00 0 0 0
924 0 1 0.0000000000000000e+00 1.5848030733343517e+01 9.1498648100213433e+00 2.5424168516787056e+00 0 0 0
930 0 1 0.0000000000000000e+00 1.1525840533340757e+01 1.1645282485481708e+01 2.5424168516786985e+00 0 0 0
931 0 1 0.0000000000000000e+00 1.2966570600008344e+01 9.1498648100213451e+00 2.5424168516786998e+00 0 0 0
932 0 1 0.0000000000000000e+00 1.4407300666675928e+01 1.1645282485481708e+01 2.5424168516787007e+00 0 0 0
933 0 1 0.0000000000000000e+00 1.4407300666675930e+01 1.3308894269121945e+01 4.8824259022897643e+00 0 0 0
934 0 1 0.0000000000000000e+00 1.5848030733343517e+01 1.0813476593661587e+01 4.8824259022897643e+00 0 0 0
935 0 1 0.0000000000000000e+00 1.2966570600008344e+01 1.0813476593661585e+01 4.8824259022897634e+00 0 0 0
936 0 1 0.0000000000000000e+00 1.7288760800011101e+01 1.3308894269121947e+01 4.8824259022897625e+00 0 0 0
937 0 1 0.0000000000000000e+00 1.7288760800011104e+01 1.4972506052762185e+01 7.2224363851916396e+00 0 0 0
939 0 1 0.0000000000000000e+00 1.5848030733343517e+01 1.2477088377301824e+01 7.2224363851916413e+00 0 0 0
945 0 1 0.0000000000000000e+00 1.1525840533340759e+01 1.3308894269121945e+01 4.8824259022897687e+00 0 0 0
946 0 1 0.0000000000000000e+00 1.1525840533340759e+01 1.4972506052762183e+01 7.2224363851916413e+00 0 0 0
947 0 1 0.0000000000000000e+00 1.2966570600008344e+01 1.2477088377301824e+01 7.2224363851916404e+00 0 0 0
948 0 1 0.0000000000000000e+00 1.4407300666675930e+01 1.4972506052762183e+01 7.2224363851916413e+00 0 0 0
989 0 1 0.0000000000000000e+00 1.4407300666675932e+01 9.9816707018414661e+00 7.2224363851916387e+00 0 0 0
992 0 1 0.0000000000000000e+00 1.7288760800011104e+01 9.9816707018414661e+00 7.2224363851916413e+00 0 0 0
1001 0 1 0.0000000000000000e+00 1.1525840533340759e+01 9.9816707018414661e+00 7.2224363851916378e+00 0 0 0
873 0 1 0.0000000000000000e+00 2.0170220933346279e+01 1.6636117836402430e+01 2.5424168516786980e+00 0 0 0
874 0 1 0.0000000000000000e+00 2.1610951000013866e+01 1.4140700160942067e+01 2.5424168516786980e+00 0 0 0
875 0 1 0.0000000000000000e+00 1.8729490866678688e+01 1.4140700160942067e+01 2.5424168516786998e+00 0 0 0
876 0 1 0.0000000000000000e+00 2.1610951000013866e+01 1.5804311944582306e+01 4.8824259022897616e+00 0 0 0
882 0 1 0.0000000000000000e+00 1.8729490866678688e+01 1.5804311944582309e+01 4.8824259022897651e+00 0 0 0
921 0 1 0.0000000000000000e+00 2.1610951000013866e+01 9.1498648100213469e+00 2.5424168516787002e+00 0 0 0
923 0 1 0.0000000000000000e+00 1.8729490866678688e+01 9.1498648100213469e+00 2.5424168516787025e+00 0 0 0
925 0 1 0.0000000000000000e+00 2.0170220933346279e+01 1.1645282485481706e+01 2.5424168516787051e+00 0 0 0
926 0 1 0.0000000000000000e+00 2.0170220933346279e+01 1.3308894269121947e+01 4.8824259022897651e+00 0 0 0
927 0 1 0.0000000000000000e+00 2.1610951000013866e+01 1.0813476593661585e+01 4.8824259022897660e+00 0 0 0
928 0 1 0.0000000000000000e+00 1.8729490866678692e+01 1.0813476593661587e+01 4.8824259022897651e+00 0 0 0
929 0 1 0.0000000000000000e+00 2.1610951000013866e+01 1.2477088377301826e+01 7.2224363851916404e+00 0 0 0
938 0 1 0.0000000000000000e+00 1.8729490866678692e+01 1.2477088377301827e+01 7.2224363851916396e+00 0 0 0
940 0 1 0.0000000000000000e+00 2.0170220933346279e+01 1.4972506052762187e+01 7.2224363851916404e+00 0 0 0
981 0 1 0.0000000000000000e+00 2.0170220933346279e+01 9.9816707018414661e+00 7.2224363851916396e+00 0 0 0
1830 0 1 0.0000000000000000e+00 2.5933141200016628e+01 1.6636117836402427e+01 2.5424168516787002e+00 0 0 0
1832 0 1 0.0000000000000000e+00 2.4492411133349044e+01 1.4140700160942066e+01 2.5424168516787002e+00 0 0 0
1840 0 1 0.0000000000000000e+00 2.3051681066681454e+01 1.6636117836402427e+01 2.5424168516787047e+00 0 0 0
1842 0 1 0.0000000000000000e+00 2.4492411133349044e+01 1.5804311944582306e+01 4.8824259022897634e+00 0 0 0
1876 0 1 0.0000000000000000e+00 2.3051681066681457e+01 1.1645282485481705e+01 2.5424168516786954e+00 0 0 0
1877 0 1 0.0000000000000000e+00 2.4492411133349041e+01 9.1498648100213469e+00 2.5424168516786976e+00 0 0 0
1878 0 1 0.0000000000000000e+00 2.5933141200016632e+01 1.1645282485481706e+01 2.5424168516787002e+00 0 0 0
1879 0 1 0.0000000000000000e+00 2.5933141200016632e+01 1.3308894269121945e+01 4.8824259022897651e+00 0 0 0
1881 0 1 0.0000000000000000e+00 2.4492411133349048e+01 1.0813476593661587e+01 4.8824259022897678e+00 0 0 0
1889 0 1 0.0000000000000000e+00 2.3051681066681457e+01 1.3308894269121947e+01 4.8824259022897643e+00 0 0 0
1890 0 1 0.0000000000000000e+00 2.3051681066681454e+01 1.4972506052762187e+01 7.2224363851916404e+00 0 0 0
1891 0 1 0.0000000000000000e+00 2.4492411133349044e+01 1.2477088377301826e+01 7.2224363851916422e+00 0 0 0
1892 0 1 0.0000000000000000e+00 2.5933141200016632e+01 1.4972506052762185e+01 7.2224363851916422e+00 0 0 0
1928 0 1 0.0000000000000000e+00 2.5933141200016632e+01 9.9816707018414661e+00 7.2224363851916422e+00 0 0 0
1938 0 1 0.0000000000000000e+00 2.3051681066681457e+01 9.9816707018414661e+00 7.2224363851916404e+00 0 0 0
2 0 1 0.0000000000000000e+00 7.2036503333380049e+00 2.4122370862783512e+01 2.5424168516787042e+00 0 0 0
3 0 1 0.0000000000000000e+00 4.3221902000028365e+00 2.4122370862783512e+01 2.5424168516786949e+00 0 0 0
4 0 1 0.0000000000000000e+00 1.4407300666676683e+00 2.4122370862783512e+01 2.5424168516786971e+00 0 0 0
6 0 1 0.0000000000000000e+00 5.7629202666704185e+00 2.1626953187323149e+01 2.5424168516787002e+00 0 0 0
7 0 1 0.0000000000000000e+00 7.2036503333380022e+00 1.9131535511862786e+01 2.5424168516787011e+00 0 0 0
8 0 1 0.0000000000000000e+00 4.3221902000028374e+00 1.9131535511862786e+01 2.5424168516787051e+00 0 0 0
9 0 1 0.0000000000000000e+00 8.6443804000055877e+00 2.1626953187323149e+01 2.5424168516787065e+00 0 0 0
10 0 1 0.0000000000000000e+00 8.6443804000055877e+00 2.3290564970963391e+01 4.8824259022897625e+00 0 0 0
12 0 1 0.0000000000000000e+00 7.2036503333380031e+00 2.0795147295503025e+01 4.8824259022897625e+00 0 0 0
14 0 1 0.0000000000000000e+00 1.4407300666676681e+00 1.9131535511862790e+01 2.5424168516787011e+00 0 0 0
15 0 1 0.0000000000000000e+00 2.8814601333352527e+00 2.1626953187323149e+01 2.5424168516786954e+00 0 0 0
16 0 1 0.0000000000000000e+00 2.8814601333352510e+00 2.3290564970963391e+01 4.8824259022897643e+00 0 0 0
17 0 1 0.0000000000000000e+00 4.3221902000028374e+00 2.0795147295503028e+01 4.8824259022897643e+00 0 0 0
18 0 1 0.0000000000000000e+00 1.4407300666676657e+00 2.0795147295503025e+01 4.8824259022897651e+00 0 0 0
19 0 1 0.0000000000000000e+00 5.7629202666704176e+00 2.3290564970963388e+01 4.8824259022897589e+00 0 0 0
20 0 1 0.0000000000000000e+00 5.7629202666704193e+00 2.4954176754603630e+01 7.2224363851916413e+00 0 0 0
21 0 1 0.0000000000000000e+00 7.2036503333380040e+00 2.2458759079143267e+01 7.2224363851916404e+00 0 0 0
22 0 1 0.0000000000000000e+00 4.3221902000028356e+00 2.2458759079143270e+01 7.2224363851916387e+00 0 0 0
23 0 1 0.0000000000000000e+00 8.6443804000055877e+00 2.4954176754603626e+01 7.2224363851916413e+00 0 0 0
26 0 1 0.0000000000000000e+00 1.4407300666676652e+00 2.2458759079143267e+01 7.2224363851916351e+00 0 0 0
27 0 1 0.0000000000000000e+00 2.8814601333352532e+00 2.4954176754603630e+01 7.2224363851916387e+00 0 0 0
38 0 1 0.0000000000000000e+00 5.7629202666704193e+00 1.8299729620042665e+01 4.8824259022897634e+00 0 0 0
41 0 1 0.0000000000000000e+00 8.6443804000055895e+00 1.8299729620042665e+01 4.8824259022897634e+00 0 0 0
42 0 1 0.0000000000000000e+00 8.6443804000055895e+00 1.9963341403682907e+01 7.2224363851916404e+00 0 0 0
44 0 1 0.0000000000000000e+00 7.2036503333380040e+00 1.7467923728222544e+01 7.2224363851916422e+00 0 0 0
47 0 1 0.0000000000000000e+00 2.8814601333352510e+00 1.8299729620042662e+01 4.8824259022897651e+00 0 0 0
48 0 1 0.0000000000000000e+00 2.8814601333352523e+00 1.9963341403682907e+01 7.2224363851916387e+00 0 0 0
49 0 1 0.0000000000000000e+00 4.3221902000028347e+00 1.7467923728222544e+01 7.2224363851916413e+00 0 0 0
50 0 1 0.0000000000000000e+00 1.4407300666676675e+00 1.7467923728222544e+01 7.2224363851916378e+00 0 0 0
51 0 1 0.0000000000000000e+00 5.7629202666704193e+00 1.9963341403682907e+01 7.2224363851916404e+00 0 0 0
1 0 1 0.0000000000000000e+00 1.0085110466673170e+01 2.4122370862783509e+01 2.5424168516786962e+00 0 0 0
5 0 1 0.0000000000000000e+00 1.0085110466673173e+01 1.9131535511862790e+01 2.5424168516787016e+00 0 0 0
11 0 1 0.0000000000000000e+00 1.0085110466673171e+01 2.0795147295503028e+01 4.8824259022897660e+00 0 0 0
13 0 1 0.0000000000000000e+00 1.0085110466673173e+01 2.2458759079143267e+01 7.2224363851916431e+00 0 0 0
43 0 1 0.0000000000000000e+00 1.0085110466673173e+01 1.7467923728222548e+01 7.2224363851916404e+00 0 0 0
843 0 1 0.0000000000000000e+00 1.5848030733343514e+01 2.4122370862783512e+01 2.5424168516787007e+00 0 0 0
844 0 1 0.0000000000000000e+00 1.2966570600008346e+01 2.4122370862783512e+01 2.5424168516786976e+00 0 0 0
846 0 1 0.0000000000000000e+00 1.7288760800011104e+01 2.1626953187323149e+01 2.5424168516786989e+00 0 0 0
848 0 1 0.0000000000000000e+00 1.5848030733343519e+01 1.9131535511862786e+01 2.5424168516787020e+00 0 0 0
854 0 1 0.0000000000000000e+00 1.1525840533340757e+01 2.1626953187323149e+01 2.5424168516787011e+00 0 0 0
855 0 1 0.0000000000000000e+00 1.2966570600008342e+01 1.9131535511862786e+01 2.5424168516787042e+00 0 0 0
856 0 1 0.0000000000000000e+00 1.4407300666675930e+01 2.1626953187323153e+01 2.5424168516787051e+00 0 0 0
857 0 1 0.0000000000000000e+00 1.4407300666675930e+01 2.3290564970963391e+01 4.8824259022897687e+00 0 0 0
858 0 1 0.0000000000000000e+00 1.5848030733343517e+01 2.0795147295503032e+01 4.8824259022897651e+00 0 0 0
859 0 1 0.0000000000000000e+00 1.2966570600008342e+01 2.0795147295503032e+01 4.8824259022897669e+00 0 0 0
860 0 1 0.0000000000000000e+00 1.7288760800011104e+01 2.3290564970963391e+01 4.8824259022897678e+00 0 0 0
861 0 1 0.0000000000000000e+00 1.7288760800011104e+01 2.4954176754603633e+01 7.2224363851916422e+00 0 0 0
863 0 1 0.0000000000000000e+00 1.5848030733343515e+01 2.2458759079143267e+01 7.2224363851916413e+00 0 0 0
867 0 1 0.0000000000000000e+00 1.1525840533340757e+01 2.3290564970963391e+01 4.8824259022897669e+00 0 0 0
868 0 1 0.0000000000000000e+00 1.1525840533340759e+01 2.4954176754603630e+01 7.2224363851916396e+00 0 0 0
869 0 1 0.0000000000000000e+00 1.2966570600008344e+01 2.2458759079143270e+01 7.2224363851916422e+00 0 0 0
870 0 1 0.0000000000000000e+00 1.4407300666675932e+01 2.4954176754603630e+01 7.2224363851916413e+00 0 0 0
881 0 1 0.0000000000000000e+00 1.7288760800011101e+01 1.8299729620042665e+01 4.8824259022897643e+00 0 0 0
890 0 1 0.0000000000000000e+00 1.1525840533340757e+01 1.8299729620042669e+01 4.8824259022897660e+00 0 0 0
892 0 1 0.0000000000000000e+00 1.4407300666675930e+01 1.8299729620042665e+01 4.8824259022897669e+00 0 0 0
893 0 1 0.0000000000000000e+00 1.4407300666675932e+01 1.9963341403682907e+01 7.2224363851916396e+00 0 0 0
894 0 1 0.0000000000000000e+00 1.5848030733343517e+01 1.7467923728222544e+01 7.2224363851916404e+00 0 0 0
895 0 1 0.0000000000000000e+00 1.2966570600008342e+01 1.7467923728222548e+01 7.2224363851916404e+00 0 0 0
896 0 1 0.0000000000000000e+00 1.7288760800011104e+01 1.9963341403682907e+01 7.2224363851916404e+00 0 0 0
905 0 1 0.0000000000000000e+00 1.1525840533340759e+01 1.9963341403682907e+01 7.2224363851916413e+00 0 0 0
841 0 1 0.0000000000000000e+00 2.1610951000013863e+01 2.4122370862783512e+01 2.5424168516786998e+00 0 0 0
842 0 1 0.0000000000000000e+00 1.8729490866678692e+01 2.4122370862783512e+01 2.5424168516787020e+00 0 0 0
845 0 1 0.0000000000000000e+00 2.1610951000013870e+01 1.9131535511862790e+01 2.5424168516787056e+00 0 0 0
847 0 1 0.0000000000000000e+00 1.8729490866678692e+01 1.9131535511862790e+01 2.5424168516787038e+00 0 0 0
849 0 1 0.0000000000000000e+00 2.0170220933346279e+01 2.1626953187323153e+01 2.5424168516786976e+00 0 0 0
850 0 1 0.0000000000000000e+00 2.0170220933346279e+01 2.3290564970963391e+01 4.8824259022897643e+00 0 0 0
851 0 1 0.0000000000000000e+00 2.1610951000013866e+01 2.0795147295503032e+01 4.8824259022897678e+00 0 0 0
852 0 1 0.0000000000000000e+00 1.8729490866678692e+01 2.0795147295503028e+01 4.8824259022897634e+00 0 0 0
853 0 1 0.0000000000000000e+00 2.1610951000013866e+01 2.2458759079143270e+01 7.2224363851916431e+00 0 0 0
862 0 1 0.0000000000000000e+00 1.8729490866678692e+01 2.2458759079143270e+01 7.2224363851916431e+00 0 0 0
864 0 1 0.0000000000000000e+00 2.0170220933346279e+01 2.4954176754603630e+01 7.2224363851916440e+00 0 0 0
884 0 1 0.0000000000000000e+00 2.0170220933346279e+01 1.8299729620042669e+01 4.8824259022897678e+00 0 0 0
885 0 1 0.0000000000000000e+00 2.0170220933346279e+01 1.9963341403682907e+01 7.2224363851916422e+00 0 0 0
886 0 1 0.0000000000000000e+00 2.1610951000013870e+01 1.7467923728222548e+01 7.2224363851916431e+00 0 0 0
887 0 1 0.0000000000000000e+00 1.8729490866678692e+01 1.7467923728222548e+01 7.2224363851916404e+00 0 0 0
1803 0 1 0.0000000000000000e+00 2.4492411133349048e+01 2.4122370862783512e+01 2.5424168516786998e+00 0 0 0
1810 0 1 0.0000000000000000e+00 2.3051681066681454e+01 2.1626953187323153e+01 2.5424168516787007e+00 0 0 0
1811 0 1 0.0000000000000000e+00 2.4492411133349041e+01 1.9131535511862790e+01 2.5424168516787011e+00 0 0 0
1812 0 1 0.0000000000000000e+00 2.5933141200016635e+01 2.1626953187323149e+01 2.5424168516787011e+00 0 0 0
1813 0 1 0.0000000000000000e+00 2.5933141200016632e+01 2.3290564970963391e+01 4.8824259022897705e+00 0 0 0
1815 0 1 0.0000000000000000e+00 2.4492411133349041e+01 2.0795147295503028e+01 4.8824259022897705e+00 0 0 0
1822 0 1 0.0000000000000000e+00 2.3051681066681454e+01 2.3290564970963391e+01 4.8824259022897705e+00 0 0 0
1823 0 1 0.0000000000000000e+00 2.3051681066681454e+01 2.4954176754603633e+01 7.2224363851916431e+00 0 0 0
1824 0 1 0.0000000000000000e+00 2.4492411133349044e+01 2.2458759079143270e+01 7.2224363851916440e+00 0 0 0
1825 0 1 0.0000000000000000e+00 2.5933141200016632e+01 2.4954176754603633e+01 7.2224363851916422e+00 0 0 0
1841 0 1 0.0000000000000000e+00 2.3051681066681457e+01 1.8299729620042665e+01 4.8824259022897660e+00 0 0 0
1843 0 1 0.0000000000000000e+00 2.5933141200016632e+01 1.8299729620042669e+01 4.8824259022897651e+00 0 0 0
1844 0 1 0.0000000000000000e+00 2.5933141200016632e+01 1.9963341403682907e+01 7.2224363851916440e+00 0 0 0
1846 0 1 0.0000000000000000e+00 2.4492411133349044e+01 1.7467923728222548e+01 7.2224363851916431e+00 0 0 0
1854 0 1 0.0000000000000000e+00 2.3051681066681454e+01 1.9963341403682907e+01 7.2224363851916440e+00 0 0 0
171 0 1 0.0000000000000000e+00 8.6443804000055877e+00 6.6544471345609839e+00 9.5624422594705347e+00 0 0 0
173 0 1 0.0000000000000000e+00 7.2036503333380040e+00 4.1590294591006227e+00 9.5624422594705365e+00 0 0 0
177 0 1 0.0000000000000000e+00 2.8814601333352523e+00 6.6544471345609830e+00 9.5624422594705329e+00 0 0 0
178 0 1 0.0000000000000000e+00 4.3221902000028356e+00 4.1590294591006245e+00 9.5624422594705329e+00 0 0 0
179 0 1 0.0000000000000000e+00 1.4407300666676657e+00 4.1590294591006227e+00 9.5624422594705329e+00 0 0 0
180 0 1 0.0000000000000000e+00 5.7629202666704202e+00 6.6544471345609839e+00 9.5624422594705347e+00 0 0 0
181 0 1 0.0000000000000000e+00 5.7629202666704193e+00 8.3180589182012223e+00 1.1902446895608756e+01 0 0 0
182 0 1 0.0000000000000000e+00 7.2036503333380031e+00 5.8226412427408620e+00 1.1902446895608756e+01 0 0 0
183 0 1 0.0000000000000000e+00 4.3221902000028374e+00 5.8226412427408620e+00 1.1902446895608756e+01 0 0 0
184 0 1 0.0000000000000000e+00 8.6443804000055895e+00 8.3180589182012223e+00 1.1902446895608756e+01 0 0 0