LAMMPS data file via write_data, version 7 Aug 2019, timestep = 16

400 atoms
4 atom types

0.0000000000000000e+00 2.0000000000000000e+01 xlo xhi
0.0000000000000000e+00 2.0000000000000000e+01 ylo yhi
0.0000000000000000e+00 2.4000000000000000e+01 zlo zhi

Masses

1 196
2 196
3 22
4 35

Atoms # full

149 0 1 0.0000000000000000e+00 7.9999999999999991e+00 8.0000000000000000e+00 4.1675777960944194e+00 0 0 0
101 0 1 0.0000000000000000e+00 5.4177671741507745e-16 0.0000000000000000e+00 4.1675777960944185e+00 0 0 0
5 0 1 0.0000000000000000e+00 4.0000000000000000e+00 0.0000000000000000e+00 3.1910551681344851e-02 0 0 0
105 0 1 0.0000000000000000e+00 4.0000000000000000e+00 0.0000000000000000e+00 4.1675777960944158e+00 0 0 0
2 0 1 0.0000000000000000e+00 5.0496821837494814e-16 2.0000000000000013e+00 2.0967050188511163e+00 0 0 0
104 0 1 0.0000000000000000e+00 2.0000000000000009e+00 1.9999999999999987e+00 4.1675777960944185e+00 0 0 0
6 0 1 0.0000000000000000e+00 3.9999999999999996e+00 1.9999999999999993e+00 2.0967050188511189e+00 0 0 0
4 0 1 0.0000000000000000e+00 1.9999999999999993e+00 2.0000000000000004e+00 3.1910551681346509e-02 0 0 0
3 0 1 0.0000000000000000e+00 2.0000000000000004e+00 0.0000000000000000e+00 2.0967050188511189e+00 0 0 0
21 0 1 0.0000000000000000e+00 3.2303533340096040e-15 4.0000000000000000e+00 3.1910551681347717e-02 0 0 0
124 0 1 0.0000000000000000e+00 1.9999999999999991e+00 6.0000000000000009e+00 4.1675777960944185e+00 0 0 0
24 0 1 0.0000000000000000e+00 1.9999999999999987e+00 6.0000000000000000e+00 3.1910551681346745e-02 0 0 0
121 0 1 0.0000000000000000e+00 0.0000000000000000e+00 4.0000000000000018e+00 4.1675777960944185e+00 0 0 0
23 0 1 0.0000000000000000e+00 1.9999999999999978e+00 3.9999999999999996e+00 2.0967050188511136e+00 0 0 0
25 0 1 0.0000000000000000e+00 3.9999999999999987e+00 4.0000000000000000e+00 3.1910551681345024e-02 0 0 0
26 0 1 0.0000000000000000e+00 4.0000000000000009e+00 6.0000000000000000e+00 2.0967050188511172e+00 0 0 0
125 0 1 0.0000000000000000e+00 4.0000000000000009e+00 3.9999999999999996e+00 4.1675777960944194e+00 0 0 0
22 0 1 0.0000000000000000e+00 1.8150004112701781e-15 6.0000000000000000e+00 2.0967050188511185e+00 0 0 0
41 0 1 0.0000000000000000e+00 0.0000000000000000e+00 8.0000000000000018e+00 3.1910551681345982e-02 0 0 0
43 0 1 0.0000000000000000e+00 2.0000000000000013e+00 8.0000000000000018e+00 2.0967050188511176e+00 0 0 0
145 0 1 0.0000000000000000e+00 3.9999999999999987e+00 8.0000000000000000e+00 4.1675777960944176e+00 0 0 0
45 0 1 0.0000000000000000e+00 3.9999999999999982e+00 7.9999999999999991e+00 3.1910551681343290e-02 0 0 0
141 0 1 0.0000000000000000e+00 0.0000000000000000e+00 8.0000000000000000e+00 4.1675777960944176e+00 0 0 0
9 0 1 0.0000000000000000e+00 8.0000000000000000e+00 0.0000000000000000e+00 3.1910551681346343e-02 0 0 0
108 0 1 0.0000000000000000e+00 6.0000000000000009e+00 2.0000000000000004e+00 4.1675777960944185e+00 0 0 0
8 0 1 0.0000000000000000e+00 5.9999999999999982e+00 1.9999999999999969e+00 3.1910551681351207e-02 0 0 0
47 0 1 0.0000000000000000e+00 6.0000000000000009e+00 8.0000000000000018e+00 2.0967050188511158e+00 0 0 0
10 0 1 0.0000000000000000e+00 7.9999999999999973e+00 2.0000000000000022e+00 2.0967050188511163e+00 0 0 0
109 0 1 0.0000000000000000e+00 8.0000000000000000e+00 8.7158951873301910e-16 4.1675777960944194e+00 0 0 0
29 0 1 0.0000000000000000e+00 8.0000000000000018e+00 4.0000000000000027e+00 3.1910551681350145e-02 0 0 0
128 0 1 0.0000000000000000e+00 6.0000000000000000e+00 5.9999999999999991e+00 4.1675777960944194e+00 0 0 0
28 0 1 0.0000000000000000e+00 5.9999999999999991e+00 6.0000000000000018e+00 3.1910551681345996e-02 0 0 0
27 0 1 0.0000000000000000e+00 6.0000000000000027e+00 4.0000000000000000e+00 2.0967050188511167e+00 0 0 0
30 0 1 0.0000000000000000e+00 7.9999999999999982e+00 5.9999999999999982e+00 2.0967050188511176e+00 0 0 0
129 0 1 0.0000000000000000e+00 7.9999999999999991e+00 4.0000000000000000e+00 4.1675777960944185e+00 0 0 0
49 0 1 0.0000000000000000e+00 8.0000000000000000e+00 7.9999999999999991e+00 3.1910551681346232e-02 0 0 0
144 0 1 0.0000000000000000e+00 1.9999999999999993e+00 9.9999999999999982e+00 4.1675777960944185e+00 0 0 0
46 0 1 0.0000000000000000e+00 3.9999999999999996e+00 9.9999999999999982e+00 2.0967050188511180e+00 0 0 0
123 0 1 0.0000000000000000e+00 1.9999999999999998e+00 4.0000000000000000e+00 6.2750930563489158e+00 0 0 0
126 0 1 0.0000000000000000e+00 4.0000000000000000e+00 6.0000000000000000e+00 6.2750930563489158e+00 0 0 0
122 0 1 0.0000000000000000e+00 0.0000000000000000e+00 6.0000000000000009e+00 6.2750930563489149e+00 0 0 0
102 0 1 0.0000000000000000e+00 0.0000000000000000e+00 2.0000000000000009e+00 6.2750930563489158e+00 0 0 0
106 0 1 0.0000000000000000e+00 4.0000000000000000e+00 2.0000000000000000e+00 6.2750930563489149e+00 0 0 0
103 0 1 0.0000000000000000e+00 2.0000000000000000e+00 0.0000000000000000e+00 6.2750930563489158e+00 0 0 0
143 0 1 0.0000000000000000e+00 2.0000000000000000e+00 8.0000000000000000e+00 6.2750930563489158e+00 0 0 0
107 0 1 0.0000000000000000e+00 6.0000000000000000e+00 4.9960491720777207e-16 6.2750930563489158e+00 0 0 0
110 0 1 0.0000000000000000e+00 8.0000000000000000e+00 1.9999999999999998e+00 6.2750930563489149e+00 0 0 0
127 0 1 0.0000000000000000e+00 6.0000000000000000e+00 4.0000000000000000e+00 6.2750930563489158e+00 0 0 0
130 0 1 0.0000000000000000e+00 8.0000000000000000e+00 6.0000000000000009e+00 6.2750930563489158e+00 0 0 0
147 0 1 0.0000000000000000e+00 6.0000000000000009e+00 8.0000000000000000e+00 6.2750930563489149e+00 0 0 0
247 0 2 0.0000000000000000e+00 5.9999999999999991e+00 8.0000000000000000e+00 1.7832422203905583e+01 0 0 0
249 0 2 0.0000000000000000e+00 7.9999999999999982e+00 8.0000000000000000e+00 1.5724906943651087e+01 0 0 0
228 0 2 0.0000000000000000e+00 6.0000000000000000e+00 6.0000000000000018e+00 1.5724906943651083e+01 0 0 0
227 0 2 0.0000000000000000e+00 6.0000000000000009e+00 4.0000000000000000e+00 1.7832422203905583e+01 0 0 0
230 0 2 0.0000000000000000e+00 7.9999999999999991e+00 5.9999999999999982e+00 1.7832422203905583e+01 0 0 0
229 0 2 0.0000000000000000e+00 8.0000000000000000e+00 4.0000000000000000e+00 1.5724906943651087e+01 0 0 0
208 0 2 0.0000000000000000e+00 6.0000000000000009e+00 2.0000000000000009e+00 1.5724906943651085e+01 0 0 0
207 0 2 0.0000000000000000e+00 6.0000000000000009e+00 0.0000000000000000e+00 1.7832422203905580e+01 0 0 0
210 0 2 0.0000000000000000e+00 7.9999999999999973e+00 1.9999999999999980e+00 1.7832422203905583e+01 0 0 0
209 0 2 0.0000000000000000e+00 8.0000000000000000e+00 1.7733385403692287e-15 1.5724906943651085e+01 0 0 0
243 0 2 0.0000000000000000e+00 2.0000000000000009e+00 8.0000000000000018e+00 1.7832422203905580e+01 0 0 0
245 0 2 0.0000000000000000e+00 3.9999999999999996e+00 8.0000000000000000e+00 1.5724906943651085e+01 0 0 0
201 0 2 0.0000000000000000e+00 5.8910932572667544e-16 9.7980859354541987e-17 1.5724906943651085e+01 0 0 0
205 0 2 0.0000000000000000e+00 3.9999999999999991e+00 3.7300967064686183e-16 1.5724906943651087e+01 0 0 0
202 0 2 0.0000000000000000e+00 5.1680737961851346e-16 1.9999999999999996e+00 1.7832422203905583e+01 0 0 0
206 0 2 0.0000000000000000e+00 3.9999999999999987e+00 1.9999999999999991e+00 1.7832422203905583e+01 0 0 0
203 0 2 0.0000000000000000e+00 1.9999999999999996e+00 1.7059837467053093e-15 1.7832422203905580e+01 0 0 0
204 0 2 0.0000000000000000e+00 2.0000000000000000e+00 1.9999999999999980e+00 1.5724906943651085e+01 0 0 0
241 0 2 0.0000000000000000e+00 7.1888196227926331e-16 8.0000000000000018e+00 1.5724906943651087e+01 0 0 0
225 0 2 0.0000000000000000e+00 3.9999999999999987e+00 4.0000000000000018e+00 1.5724906943651085e+01 0 0 0
224 0 2 0.0000000000000000e+00 2.0000000000000013e+00 6.0000000000000009e+00 1.5724906943651087e+01 0 0 0
226 0 2 0.0000000000000000e+00 4.0000000000000000e+00 6.0000000000000000e+00 1.7832422203905583e+01 0 0 0
223 0 2 0.0000000000000000e+00 2.0000000000000000e+00 4.0000000000000000e+00 1.7832422203905580e+01 0 0 0
248 0 2 0.0000000000000000e+00 6.0000000000000009e+00 9.9999999999999982e+00 1.5724906943651087e+01 0 0 0
246 0 2 0.0000000000000000e+00 4.0000000000000009e+00 9.9999999999999982e+00 1.7832422203905580e+01 0 0 0
347 0 2 0.0000000000000000e+00 6.0000000000000009e+00 7.9999999999999991e+00 2.1968089448318658e+01 0 0 0
349 0 2 0.0000000000000000e+00 7.9999999999999982e+00 8.0000000000000018e+00 1.9903294981148882e+01 0 0 0
328 0 2 0.0000000000000000e+00 6.0000000000000027e+00 6.0000000000000000e+00 1.9903294981148878e+01 0 0 0
327 0 2 0.0000000000000000e+00 5.9999999999999982e+00 4.0000000000000018e+00 2.1968089448318651e+01 0 0 0
330 0 2 0.0000000000000000e+00 7.9999999999999973e+00 6.0000000000000000e+00 2.1968089448318661e+01 0 0 0
329 0 2 0.0000000000000000e+00 7.9999999999999973e+00 3.9999999999999987e+00 1.9903294981148882e+01 0 0 0
308 0 2 0.0000000000000000e+00 6.0000000000000009e+00 2.0000000000000013e+00 1.9903294981148886e+01 0 0 0
307 0 2 0.0000000000000000e+00 6.0000000000000009e+00 5.2055968357202428e-16 2.1968089448318654e+01 0 0 0
310 0 2 0.0000000000000000e+00 8.0000000000000000e+00 1.9999999999999980e+00 2.1968089448318654e+01 0 0 0
309 0 2 0.0000000000000000e+00 7.9999999999999991e+00 4.8293649486339003e-17 1.9903294981148882e+01 0 0 0
343 0 2 0.0000000000000000e+00 2.0000000000000013e+00 7.9999999999999991e+00 2.1968089448318658e+01 0 0 0
345 0 2 0.0000000000000000e+00 3.9999999999999996e+00 7.9999999999999991e+00 1.9903294981148882e+01 0 0 0
301 0 2 0.0000000000000000e+00 2.6245898616894225e-15 3.7841809915103567e-16 1.9903294981148878e+01 0 0 0
305 0 2 0.0000000000000000e+00 3.9999999999999987e+00 5.5226767205382079e-16 1.9903294981148882e+01 0 0 0
302 0 2 0.0000000000000000e+00 0.0000000000000000e+00 1.9999999999999962e+00 2.1968089448318661e+01 0 0 0
306 0 2 0.0000000000000000e+00 3.9999999999999996e+00 2.0000000000000004e+00 2.1968089448318658e+01 0 0 0
303 0 2 0.0000000000000000e+00 1.9999999999999993e+00 0.0000000000000000e+00 2.1968089448318658e+01 0 0 0
304 0 2 0.0000000000000000e+00 2.0000000000000009e+00 1.9999999999999998e+00 1.9903294981148882e+01 0 0 0
324 0 2 0.0000000000000000e+00 1.9999999999999998e+00 6.0000000000000009e+00 1.9903294981148878e+01 0 0 0
325 0 2 0.0000000000000000e+00 4.0000000000000027e+00 3.9999999999999978e+00 1.9903294981148886e+01 0 0 0
322 0 2 0.0000000000000000e+00 0.0000000000000000e+00 6.0000000000000000e+00 2.1968089448318661e+01 0 0 0
326 0 2 0.0000000000000000e+00 4.0000000000000027e+00 6.0000000000000009e+00 2.1968089448318661e+01 0 0 0
323 0 2 0.0000000000000000e+00 2.0000000000000009e+00 3.9999999999999987e+00 2.1968089448318654e+01 0 0 0
344 0 2 0.0000000000000000e+00 1.9999999999999991e+00 9.9999999999999982e+00 1.9903294981148882e+01 0 0 0
348 0 2 0.0000000000000000e+00 6.0000000000000000e+00 9.9999999999999982e+00 1.9903294981148882e+01 0 0 0
52 0 1 0.0000000000000000e+00 9.9999999999999982e+00 1.0000000000000000e+01 3.1910551681351693e-02 0 0 0
44 0 1 0.0000000000000000e+00 2.0000000000000004e+00 1.0000000000000002e+01 3.1910551681343879e-02 0 0 0
88 0 1 0.0000000000000000e+00 5.9999999999999982e+00 1.8000000000000004e+01 3.1910551681347599e-02 0 0 0
42 0 1 0.0000000000000000e+00 2.5088308712873484e-15 1.0000000000000000e+01 2.0967050188511176e+00 0 0 0
61 0 1 0.0000000000000000e+00 0.0000000000000000e+00 1.2000000000000000e+01 3.1910551681342658e-02 0 0 0
161 0 1 0.0000000000000000e+00 0.0000000000000000e+00 1.1999999999999998e+01 4.1675777960944185e+00 0 0 0
65 0 1 0.0000000000000000e+00 3.9999999999999991e+00 1.2000000000000000e+01 3.1910551681338384e-02 0 0 0
165 0 1 0.0000000000000000e+00 4.0000000000000018e+00 1.2000000000000000e+01 4.1675777960944185e+00 0 0 0
62 0 1 0.0000000000000000e+00 0.0000000000000000e+00 1.3999999999999998e+01 2.0967050188511158e+00 0 0 0
66 0 1 0.0000000000000000e+00 4.0000000000000018e+00 1.4000000000000000e+01 2.0967050188511185e+00 0 0 0
63 0 1 0.0000000000000000e+00 1.9999999999999984e+00 1.1999999999999998e+01 2.0967050188511180e+00 0 0 0
64 0 1 0.0000000000000000e+00 2.0000000000000004e+00 1.4000000000000002e+01 3.1910551681342957e-02 0 0 0
164 0 1 0.0000000000000000e+00 1.9999999999999996e+00 1.4000000000000002e+01 4.1675777960944220e+00 0 0 0
188 0 1 0.0000000000000000e+00 6.0000000000000000e+00 1.8000000000000000e+01 4.1675777960944185e+00 0 0 0
181 0 1 0.0000000000000000e+00 7.8688568522603965e-16 1.6000000000000000e+01 4.1675777960944220e+00 0 0 0
85 0 1 0.0000000000000000e+00 3.9999999999999982e+00 1.5999999999999998e+01 3.1910551681346301e-02 0 0 0
185 0 1 0.0000000000000000e+00 4.0000000000000000e+00 1.6000000000000000e+01 4.1675777960944203e+00 0 0 0
82 0 1 0.0000000000000000e+00 1.6795721601224062e-15 1.8000000000000000e+01 2.0967050188511163e+00 0 0 0
86 0 1 0.0000000000000000e+00 4.0000000000000000e+00 1.8000000000000004e+01 2.0967050188511180e+00 0 0 0
83 0 1 0.0000000000000000e+00 1.9999999999999998e+00 1.6000000000000000e+01 2.0967050188511132e+00 0 0 0
84 0 1 0.0000000000000000e+00 2.0000000000000004e+00 1.8000000000000000e+01 3.1910551681348022e-02 0 0 0
184 0 1 0.0000000000000000e+00 2.0000000000000009e+00 1.8000000000000000e+01 4.1675777960944194e+00 0 0 0
148 0 1 0.0000000000000000e+00 6.0000000000000009e+00 1.0000000000000000e+01 4.1675777960944185e+00 0 0 0
48 0 1 0.0000000000000000e+00 6.0000000000000000e+00 1.0000000000000000e+01 3.1910551681345316e-02 0 0 0
50 0 1 0.0000000000000000e+00 7.9999999999999991e+00 1.0000000000000000e+01 2.0967050188511158e+00 0 0 0
69 0 1 0.0000000000000000e+00 7.9999999999999991e+00 1.2000000000000002e+01 3.1910551681343685e-02 0 0 0
169 0 1 0.0000000000000000e+00 8.0000000000000000e+00 1.2000000000000000e+01 4.1675777960944194e+00 0 0 0
70 0 1 0.0000000000000000e+00 7.9999999999999973e+00 1.4000000000000002e+01 2.0967050188511198e+00 0 0 0
67 0 1 0.0000000000000000e+00 6.0000000000000009e+00 1.2000000000000000e+01 2.0967050188511194e+00 0 0 0
68 0 1 0.0000000000000000e+00 5.9999999999999991e+00 1.3999999999999998e+01 3.1910551681339216e-02 0 0 0
168 0 1 0.0000000000000000e+00 6.0000000000000018e+00 1.4000000000000000e+01 4.1675777960944176e+00 0 0 0
89 0 1 0.0000000000000000e+00 8.0000000000000018e+00 1.5999999999999998e+01 3.1910551681346190e-02 0 0 0
189 0 1 0.0000000000000000e+00 8.0000000000000000e+00 1.5999999999999998e+01 4.1675777960944185e+00 0 0 0
90 0 1 0.0000000000000000e+00 8.0000000000000000e+00 1.8000000000000004e+01 2.0967050188511163e+00 0 0 0
87 0 1 0.0000000000000000e+00 6.0000000000000018e+00 1.5999999999999996e+01 2.0967050188511189e+00 0 0 0
7 0 1 0.0000000000000000e+00 5.9999999999999991e+00 1.9999999999999996e+01 2.0967050188511163e+00 0 -1 0
146 0 1 0.0000000000000000e+00 4.0000000000000000e+00 1.0000000000000000e+01 6.2750930563489158e+00 0 0 0
142 0 1 0.0000000000000000e+00 2.1061797445689059e-18 1.0000000000000000e+01 6.2750930563489149e+00 0 0 0
162 0 1 0.0000000000000000e+00 2.2458878325453499e-16 1.4000000000000000e+01 6.2750930563489149e+00 0 0 0
166 0 1 0.0000000000000000e+00 3.9999999999999996e+00 1.4000000000000000e+01 6.2750930563489149e+00 0 0 0
163 0 1 0.0000000000000000e+00 1.9999999999999996e+00 1.2000000000000000e+01 6.2750930563489149e+00 0 0 0
182 0 1 0.0000000000000000e+00 2.0010512041184661e-16 1.8000000000000000e+01 6.2750930563489149e+00 0 0 0
186 0 1 0.0000000000000000e+00 4.0000000000000000e+00 1.8000000000000000e+01 6.2750930563489158e+00 0 0 0
183 0 1 0.0000000000000000e+00 1.9999999999999996e+00 1.6000000000000000e+01 6.2750930563489140e+00 0 0 0
150 0 1 0.0000000000000000e+00 8.0000000000000000e+00 1.0000000000000000e+01 6.2750930563489149e+00 0 0 0
170 0 1 0.0000000000000000e+00 8.0000000000000000e+00 1.4000000000000000e+01 6.2750930563489149e+00 0 0 0
167 0 1 0.0000000000000000e+00 6.0000000000000000e+00 1.2000000000000000e+01 6.2750930563489149e+00 0 0 0
190 0 1 0.0000000000000000e+00 8.0000000000000000e+00 1.8000000000000000e+01 6.2750930563489158e+00 0 0 0
187 0 1 0.0000000000000000e+00 6.0000000000000000e+00 1.6000000000000000e+01 6.2750930563489149e+00 0 0 0
288 0 2 0.0000000000000000e+00 5.9999999999999991e+00 1.8000000000000000e+01 1.5724906943651087e+01 0 0 0
287 0 2 0.0000000000000000e+00 6.0000000000000000e+00 1.6000000000000004e+01 1.7832422203905580e+01 0 0 0
290 0 2 0.0000000000000000e+00 8.0000000000000000e+00 1.8000000000000000e+01 1.7832422203905580e+01 0 0 0
289 0 2 0.0000000000000000e+00 8.0000000000000000e+00 1.6000000000000000e+01 1.5724906943651087e+01 0 0 0
268 0 2 0.0000000000000000e+00 6.0000000000000000e+00 1.4000000000000000e+01 1.5724906943651089e+01 0 0 0
267 0 2 0.0000000000000000e+00 6.0000000000000018e+00 1.1999999999999998e+01 1.7832422203905580e+01 0 0 0
270 0 2 0.0000000000000000e+00 8.0000000000000018e+00 1.4000000000000002e+01 1.7832422203905580e+01 0 0 0
269 0 2 0.0000000000000000e+00 8.0000000000000000e+00 1.2000000000000000e+01 1.5724906943651089e+01 0 0 0
291 0 2 0.0000000000000000e+00 9.9999999999999964e+00 1.5999999999999998e+01 1.7832422203905580e+01 0 0 0
284 0 2 0.0000000000000000e+00 2.0000000000000000e+00 1.8000000000000000e+01 1.5724906943651087e+01 0 0 0
244 0 2 0.0000000000000000e+00 1.9999999999999998e+00 1.0000000000000000e+01 1.5724906943651089e+01 0 0 0
261 0 2 0.0000000000000000e+00 8.7305798463623247e-16 1.2000000000000000e+01 1.5724906943651087e+01 0 0 0
265 0 2 0.0000000000000000e+00 3.9999999999999987e+00 1.2000000000000000e+01 1.5724906943651087e+01 0 0 0
262 0 2 0.0000000000000000e+00 0.0000000000000000e+00 1.4000000000000000e+01 1.7832422203905576e+01 0 0 0
266 0 2 0.0000000000000000e+00 4.0000000000000000e+00 1.4000000000000000e+01 1.7832422203905576e+01 0 0 0
263 0 2 0.0000000000000000e+00 2.0000000000000000e+00 1.2000000000000002e+01 1.7832422203905580e+01 0 0 0
264 0 2 0.0000000000000000e+00 1.9999999999999996e+00 1.4000000000000000e+01 1.5724906943651089e+01 0 0 0
250 0 2 0.0000000000000000e+00 7.9999999999999982e+00 1.0000000000000000e+01 1.7832422203905580e+01 0 0 0
285 0 2 0.0000000000000000e+00 3.9999999999999996e+00 1.6000000000000000e+01 1.5724906943651087e+01 0 0 0
282 0 2 0.0000000000000000e+00 0.0000000000000000e+00 1.8000000000000000e+01 1.7832422203905580e+01 0 0 0
286 0 2 0.0000000000000000e+00 4.0000000000000018e+00 1.8000000000000000e+01 1.7832422203905580e+01 0 0 0
283 0 2 0.0000000000000000e+00 1.9999999999999998e+00 1.6000000000000000e+01 1.7832422203905576e+01 0 0 0
211 0 2 0.0000000000000000e+00 9.9999999999999982e+00 1.9999999999999996e+01 1.7832422203905583e+01 0 -1 0
388 0 2 0.0000000000000000e+00 6.0000000000000027e+00 1.7999999999999996e+01 1.9903294981148886e+01 0 0 0
387 0 2 0.0000000000000000e+00 5.9999999999999991e+00 1.5999999999999998e+01 2.1968089448318658e+01 0 0 0
390 0 2 0.0000000000000000e+00 7.9999999999999982e+00 1.8000000000000004e+01 2.1968089448318654e+01 0 0 0
389 0 2 0.0000000000000000e+00 8.0000000000000000e+00 1.6000000000000000e+01 1.9903294981148882e+01 0 0 0
368 0 2 0.0000000000000000e+00 6.0000000000000027e+00 1.4000000000000002e+01 1.9903294981148882e+01 0 0 0
367 0 2 0.0000000000000000e+00 5.9999999999999991e+00 1.2000000000000002e+01 2.1968089448318661e+01 0 0 0
370 0 2 0.0000000000000000e+00 7.9999999999999973e+00 1.3999999999999996e+01 2.1968089448318658e+01 0 0 0
369 0 2 0.0000000000000000e+00 8.0000000000000000e+00 1.2000000000000005e+01 1.9903294981148886e+01 0 0 0
342 0 2 0.0000000000000000e+00 0.0000000000000000e+00 1.0000000000000000e+01 2.1968089448318658e+01 0 0 0
346 0 2 0.0000000000000000e+00 4.0000000000000027e+00 1.0000000000000002e+01 2.1968089448318661e+01 0 0 0
372 0 2 0.0000000000000000e+00 9.9999999999999982e+00 1.3999999999999998e+01 1.9903294981148889e+01 0 0 0
361 0 2 0.0000000000000000e+00 0.0000000000000000e+00 1.2000000000000002e+01 1.9903294981148882e+01 0 0 0
365 0 2 0.0000000000000000e+00 3.9999999999999987e+00 1.1999999999999996e+01 1.9903294981148882e+01 0 0 0
384 0 2 0.0000000000000000e+00 1.9999999999999998e+00 1.8000000000000004e+01 1.9903294981148882e+01 0 0 0
366 0 2 0.0000000000000000e+00 4.0000000000000009e+00 1.3999999999999996e+01 2.1968089448318665e+01 0 0 0
363 0 2 0.0000000000000000e+00 2.0000000000000004e+00 1.2000000000000002e+01 2.1968089448318661e+01 0 0 0
364 0 2 0.0000000000000000e+00 1.9999999999999982e+00 1.4000000000000000e+01 1.9903294981148886e+01 0 0 0
381 0 2 0.0000000000000000e+00 0.0000000000000000e+00 1.5999999999999998e+01 1.9903294981148886e+01 0 0 0
385 0 2 0.0000000000000000e+00 4.0000000000000009e+00 1.6000000000000000e+01 1.9903294981148886e+01 0 0 0
350 0 2 0.0000000000000000e+00 7.9999999999999973e+00 1.0000000000000000e+01 2.1968089448318654e+01 0 0 0
386 0 2 0.0000000000000000e+00 3.9999999999999987e+00 1.8000000000000000e+01 2.1968089448318658e+01 0 0 0
383 0 2 0.0000000000000000e+00 2.0000000000000018e+00 1.5999999999999998e+01 2.1968089448318654e+01 0 0 0
13 0 1 0.0000000000000000e+00 1.2000000000000002e+01 0.0000000000000000e+00 3.1910551681340014e-02 0 0 0
113 0 1 0.0000000000000000e+00 1.1999999999999998e+01 4.4591637376247437e-16 4.1675777960944194e+00 0 0 0
14 0 1 0.0000000000000000e+00 1.1999999999999998e+01 2.0000000000000000e+00 2.0967050188511172e+00 0 0 0
116 0 1 0.0000000000000000e+00 1.4000000000000000e+01 2.0000000000000000e+00 4.1675777960944194e+00 0 0 0
11 0 1 0.0000000000000000e+00 1.0000000000000002e+01 0.0000000000000000e+00 2.0967050188511189e+00 0 0 0
16 0 1 0.0000000000000000e+00 1.3999999999999998e+01 1.9999999999999987e+00 3.1910551681347564e-02 0 0 0
15 0 1 0.0000000000000000e+00 1.4000000000000000e+01 0.0000000000000000e+00 2.0967050188511158e+00 0 0 0
112 0 1 0.0000000000000000e+00 1.0000000000000000e+01 1.9999999999999982e+00 4.1675777960944185e+00 0 0 0
12 0 1 0.0000000000000000e+00 1.0000000000000004e+01 2.0000000000000013e+00 3.1910551681345087e-02 0 0 0
33 0 1 0.0000000000000000e+00 1.1999999999999996e+01 4.0000000000000009e+00 3.1910551681345656e-02 0 0 0
136 0 1 0.0000000000000000e+00 1.4000000000000000e+01 6.0000000000000009e+00 4.1675777960944185e+00 0 0 0
36 0 1 0.0000000000000000e+00 1.3999999999999996e+01 5.9999999999999991e+00 3.1910551681345260e-02 0 0 0
132 0 1 0.0000000000000000e+00 1.0000000000000002e+01 6.0000000000000009e+00 4.1675777960944176e+00 0 0 0
32 0 1 0.0000000000000000e+00 1.0000000000000002e+01 5.9999999999999991e+00 3.1910551681340327e-02 0 0 0
133 0 1 0.0000000000000000e+00 1.2000000000000000e+01 4.0000000000000009e+00 4.1675777960944185e+00 0 0 0
35 0 1 0.0000000000000000e+00 1.4000000000000000e+01 3.9999999999999996e+00 2.0967050188511154e+00 0 0 0
34 0 1 0.0000000000000000e+00 1.1999999999999998e+01 6.0000000000000000e+00 2.0967050188511198e+00 0 0 0
31 0 1 0.0000000000000000e+00 1.0000000000000000e+01 4.0000000000000000e+00 2.0967050188511176e+00 0 0 0
53 0 1 0.0000000000000000e+00 1.2000000000000002e+01 7.9999999999999982e+00 3.1910551681344219e-02 0 0 0
55 0 1 0.0000000000000000e+00 1.3999999999999996e+01 8.0000000000000036e+00 2.0967050188511194e+00 0 0 0
51 0 1 0.0000000000000000e+00 1.0000000000000000e+01 7.9999999999999991e+00 2.0967050188511185e+00 0 0 0
153 0 1 0.0000000000000000e+00 1.2000000000000002e+01 7.9999999999999991e+00 4.1675777960944176e+00 0 0 0
1 0 1 0.0000000000000000e+00 1.9999999999999996e+01 1.1743663498236689e-15 3.1910551681340382e-02 -1 0 0
120 0 1 0.0000000000000000e+00 1.8000000000000000e+01 2.0000000000000009e+00 4.1675777960944194e+00 0 0 0
20 0 1 0.0000000000000000e+00 1.8000000000000000e+01 1.9999999999999969e+00 3.1910551681345094e-02 0 0 0
19 0 1 0.0000000000000000e+00 1.8000000000000000e+01 1.1871799919368441e-15 2.0967050188511154e+00 0 0 0
18 0 1 0.0000000000000000e+00 1.6000000000000000e+01 2.0000000000000000e+00 2.0967050188511163e+00 0 0 0
117 0 1 0.0000000000000000e+00 1.6000000000000000e+01 3.6795970685356677e-16 4.1675777960944203e+00 0 0 0
37 0 1 0.0000000000000000e+00 1.6000000000000000e+01 3.9999999999999991e+00 3.1910551681349535e-02 0 0 0
140 0 1 0.0000000000000000e+00 1.8000000000000000e+01 6.0000000000000009e+00 4.1675777960944158e+00 0 0 0
40 0 1 0.0000000000000000e+00 1.8000000000000000e+01 6.0000000000000009e+00 3.1910551681345121e-02 0 0 0
39 0 1 0.0000000000000000e+00 1.8000000000000000e+01 3.9999999999999987e+00 2.0967050188511180e+00 0 0 0
38 0 1 0.0000000000000000e+00 1.6000000000000000e+01 5.9999999999999991e+00 2.0967050188511185e+00 0 0 0
137 0 1 0.0000000000000000e+00 1.6000000000000000e+01 4.0000000000000000e+00 4.1675777960944185e+00 0 0 0
57 0 1 0.0000000000000000e+00 1.6000000000000000e+01 7.9999999999999991e+00 3.1910551681350721e-02 0 0 0
59 0 1 0.0000000000000000e+00 1.8000000000000000e+01 7.9999999999999982e+00 2.0967050188511163e+00 0 0 0
157 0 1 0.0000000000000000e+00 1.5999999999999998e+01 8.0000000000000000e+00 4.1675777960944176e+00 0 0 0
156 0 1 0.0000000000000000e+00 1.4000000000000000e+01 9.9999999999999982e+00 4.1675777960944185e+00 0 0 0
56 0 1 0.0000000000000000e+00 1.3999999999999998e+01 9.9999999999999964e+00 3.1910551681347814e-02 0 0 0
54 0 1 0.0000000000000000e+00 1.2000000000000000e+01 9.9999999999999982e+00 2.0967050188511189e+00 0 0 0
135 0 1 0.0000000000000000e+00 1.4000000000000000e+01 4.0000000000000000e+00 6.2750930563489158e+00 0 0 0
131 0 1 0.0000000000000000e+00 1.0000000000000000e+01 4.0000000000000009e+00 6.2750930563489158e+00 0 0 0
134 0 1 0.0000000000000000e+00 1.2000000000000000e+01 6.0000000000000000e+00 6.2750930563489158e+00 0 0 0
114 0 1 0.0000000000000000e+00 1.2000000000000000e+01 1.9999999999999998e+00 6.2750930563489149e+00 0 0 0
111 0 1 0.0000000000000000e+00 1.0000000000000000e+01 3.8840009829346484e-16 6.2750930563489158e+00 0 0 0
115 0 1 0.0000000000000000e+00 1.4000000000000000e+01 0.0000000000000000e+00 6.2750930563489158e+00 0 0 0
155 0 1 0.0000000000000000e+00 1.4000000000000000e+01 8.0000000000000000e+00 6.2750930563489158e+00 0 0 0
151 0 1 0.0000000000000000e+00 1.0000000000000000e+01 8.0000000000000000e+00 6.2750930563489158e+00 0 0 0
119 0 1 0.0000000000000000e+00 1.8000000000000000e+01 2.5353357513509829e-16 6.2750930563489149e+00 0 0 0
118 0 1 0.0000000000000000e+00 1.6000000000000000e+01 2.0000000000000004e+00 6.2750930563489149e+00 0 0 0
139 0 1 0.0000000000000000e+00 1.8000000000000000e+01 3.9999999999999996e+00 6.2750930563489158e+00 0 0 0
138 0 1 0.0000000000000000e+00 1.6000000000000000e+01 6.0000000000000000e+00 6.2750930563489158e+00 0 0 0
159 0 1 0.0000000000000000e+00 1.8000000000000000e+01 8.0000000000000000e+00 6.2750930563489158e+00 0 0 0
259 0 2 0.0000000000000000e+00 1.8000000000000000e+01 8.0000000000000018e+00 1.7832422203905576e+01 0 0 0
257 0 2 0.0000000000000000e+00 1.6000000000000000e+01 8.0000000000000000e+00 1.5724906943651087e+01 0 0 0
240 0 2 0.0000000000000000e+00 1.8000000000000000e+01 6.0000000000000000e+00 1.5724906943651085e+01 0 0 0
239 0 2 0.0000000000000000e+00 1.8000000000000000e+01 4.0000000000000018e+00 1.7832422203905587e+01 0 0 0
238 0 2 0.0000000000000000e+00 1.5999999999999998e+01 6.0000000000000009e+00 1.7832422203905576e+01 0 0 0
237 0 2 0.0000000000000000e+00 1.6000000000000000e+01 3.9999999999999996e+00 1.5724906943651085e+01 0 0 0
220 0 2 0.0000000000000000e+00 1.8000000000000000e+01 2.0000000000000013e+00 1.5724906943651085e+01 0 0 0
222 0 2 0.0000000000000000e+00 1.9999999999999996e+01 5.9999999999999982e+00 1.7832422203905583e+01 -1 0 0
218 0 2 0.0000000000000000e+00 1.5999999999999998e+01 2.0000000000000004e+00 1.7832422203905583e+01 0 0 0
217 0 2 0.0000000000000000e+00 1.6000000000000000e+01 0.0000000000000000e+00 1.5724906943651089e+01 0 0 0
255 0 2 0.0000000000000000e+00 1.4000000000000004e+01 7.9999999999999982e+00 1.7832422203905583e+01 0 0 0
251 0 2 0.0000000000000000e+00 1.0000000000000000e+01 8.0000000000000000e+00 1.7832422203905580e+01 0 0 0
213 0 2 0.0000000000000000e+00 1.2000000000000000e+01 0.0000000000000000e+00 1.5724906943651085e+01 0 0 0
214 0 2 0.0000000000000000e+00 1.2000000000000000e+01 1.9999999999999991e+00 1.7832422203905583e+01 0 0 0
253 0 2 0.0000000000000000e+00 1.1999999999999998e+01 8.0000000000000000e+00 1.5724906943651087e+01 0 0 0
215 0 2 0.0000000000000000e+00 1.4000000000000002e+01 0.0000000000000000e+00 1.7832422203905580e+01 0 0 0
212 0 2 0.0000000000000000e+00 1.0000000000000000e+01 1.9999999999999996e+00 1.5724906943651085e+01 0 0 0
216 0 2 0.0000000000000000e+00 1.4000000000000000e+01 1.9999999999999996e+00 1.5724906943651085e+01 0 0 0
233 0 2 0.0000000000000000e+00 1.1999999999999998e+01 4.0000000000000009e+00 1.5724906943651087e+01 0 0 0
234 0 2 0.0000000000000000e+00 1.2000000000000002e+01 6.0000000000000009e+00 1.7832422203905580e+01 0 0 0
231 0 2 0.0000000000000000e+00 1.0000000000000000e+01 4.0000000000000018e+00 1.7832422203905580e+01 0 0 0
235 0 2 0.0000000000000000e+00 1.4000000000000002e+01 4.0000000000000027e+00 1.7832422203905583e+01 0 0 0
232 0 2 0.0000000000000000e+00 1.0000000000000000e+01 5.9999999999999982e+00 1.5724906943651087e+01 0 0 0
236 0 2 0.0000000000000000e+00 1.4000000000000000e+01 6.0000000000000000e+00 1.5724906943651085e+01 0 0 0
221 0 2 0.0000000000000000e+00 1.9999999999999996e+01 4.0000000000000000e+00 1.5724906943651085e+01 -1 0 0
260 0 2 0.0000000000000000e+00 1.8000000000000000e+01 9.9999999999999982e+00 1.5724906943651089e+01 0 0 0
258 0 2 0.0000000000000000e+00 1.6000000000000000e+01 9.9999999999999964e+00 1.7832422203905583e+01 0 0 0
242 0 2 0.0000000000000000e+00 1.9999999999999996e+01 9.9999999999999982e+00 1.7832422203905576e+01 -1 0 0
359 0 2 0.0000000000000000e+00 1.8000000000000000e+01 7.9999999999999973e+00 2.1968089448318651e+01 0 0 0
357 0 2 0.0000000000000000e+00 1.6000000000000000e+01 8.0000000000000000e+00 1.9903294981148889e+01 0 0 0
340 0 2 0.0000000000000000e+00 1.8000000000000000e+01 5.9999999999999991e+00 1.9903294981148882e+01 0 0 0
339 0 2 0.0000000000000000e+00 1.8000000000000000e+01 3.9999999999999996e+00 2.1968089448318658e+01 0 0 0
338 0 2 0.0000000000000000e+00 1.6000000000000000e+01 6.0000000000000018e+00 2.1968089448318654e+01 0 0 0