LAMMPS (7 Aug 2019)
OMP_NUM_THREADS environment is not set. Defaulting to 1 thread. (../comm.cpp:93)
  using 1 OpenMP thread(s) per MPI task
units           real
boundary        p p f

atom_style      full
bond_style      harmonic
angle_style     charmm
dihedral_style  charmmfsw
improper_style  harmonic
special_bonds   charmm

pair_style      lj/charmmfsw/coul/long/bsct 8.0 12.0 7.0
Switching to CHARMM coulomb energy conversion constant (../pair_lj_charmmfsw_coul_long.cpp:66)

pair_modify table 0

kspace_style pppm/bsct 1.0e-4
kspace_modify slab 3.0

neighbor 1.0 bin
neigh_modify delay 0 every 1 check yes

read_data       electrodes.setup
  orthogonal box = (0 0 0) to (20 20 12)
  2 by 5 by 2 MPI processor grid
  reading atoms ...
  200 atoms
  reading velocities ...
  200 velocities
  0 = max # of 1-2 neighbors
  0 = max # of 1-3 neighbors
  0 = max # of 1-4 neighbors
  1 = max # of special neighbors
  special bonds CPU = 0.00348078 secs
  read_data CPU = 0.331357 secs
include coeffs.setup
# LAMMPS coeff file via write_coeff, version 7 Aug 2019
# pair_style lj/charmmfsw/coul/charmmfsh
pair_coeff 1 1 5.29 2.62904 5.29 2.62904
pair_coeff 1 2 5.29 2.62904 5.29 2.62904
pair_coeff 1 3 0.498097 2.52753 0.498097 2.52753
pair_coeff 1 4 0.890786 3.26092 0.890786 3.26092
pair_coeff 2 2 5.29 2.62904 5.29 2.62904
pair_coeff 2 3 0.498097 2.52753 0.498097 2.52753
pair_coeff 2 4 0.890786 3.26092 0.890786 3.26092
pair_coeff 3 3 0.0469 2.42993 0.0469 2.42993
pair_coeff 3 4 0.0838749 3.13501 0.0838749 3.13501
pair_coeff 4 4 0.15 4.04468 0.15 4.04468


create_atoms 3 single $(xlo + (xhi-xlo)/3) $(ylo + (yhi-ylo)/3) $(zlo + (zhi-zlo)/2)
create_atoms 3 single 6.6666666666666669627 $(ylo + (yhi-ylo)/3) $(zlo + (zhi-zlo)/2)
create_atoms 3 single 6.6666666666666669627 6.6666666666666669627 $(zlo + (zhi-zlo)/2)
create_atoms 3 single 6.6666666666666669627 6.6666666666666669627 6
Created 1 atoms
  create_atoms CPU = 0.00010211 secs
create_atoms 4 single $(xlo + (xhi-xlo)*2/3) $(ylo + (yhi-ylo)*2/3) $(zlo + (zhi-zlo)/2)
create_atoms 4 single 13.333333333333333925 $(ylo + (yhi-ylo)*2/3) $(zlo + (zhi-zlo)/2)
create_atoms 4 single 13.333333333333333925 13.333333333333333925 $(zlo + (zhi-zlo)/2)
create_atoms 4 single 13.333333333333333925 13.333333333333333925 6
Created 1 atoms
  create_atoms CPU = 4.5412e-05 secs
set type 3 charge 1e-6
  1 settings made for charge
set type 4 charge -1e-6
  1 settings made for charge
change_box all z final $(zlo) $(2*zhi)
change_box all z final 0 $(2*zhi)
change_box all z final 0 24
  orthogonal box = (0 0 0) to (20 20 24)
#^add vacuum above top electrode


group lower_plate type  1
100 atoms in group lower_plate
group upper_plate type  2
100 atoms in group upper_plate
group capacitor   union lower_plate    upper_plate
200 atoms in group capacitor
group anions      type  4
1 atoms in group anions
group cations     type  3
1 atoms in group cations
group ions        union anions         cations
2 atoms in group ions

fix main ions nve
# BSCT FIX SYNTAX:
# fix groupID bsct atomType X U V p keyword values
# X: chemical potential; U: Hubbard energy; V: band structure contribution; p: exponent; Note that U cannot be "0"
fix             ct capacitor bsct nevery 1 qtot 0.0 log 3 mode 2 history 3                 beta 0.1 prec 0.05 max_iter 1000                 type 1 -.5 1 0.0 1.0                 type 2 .5 1 0.0 1.0
Band structure charge transfer fix parameters:
  Update charges every 1 steps
  Logging level (0-3)  = 3
  Total charge = 0.000000
  Convergence criterion for |dG/dq_i| = 0.050000
  Convergence criterion for |dG/dq_i| = 0.050000
  Anderson mixing options:
    Mode = 2
    Maximum iterations = 1000
    Mixing parameters:
       beta = 0.100000
       beta_max = 0.100000
       beta_mul = 1.000000
       history = 3
  Atom type parameters:
       type               X               U               V               p
          1        -0.50000         1.00000         0.00000         1.00000
          2         0.50000         1.00000         0.00000         1.00000

##                type 3 0 1 0.0 1.0 #                type 4 0 1 0.0 1.0
fix_modify      ct energy yes


thermo          1
thermo_style    custom step temp press etotal ke pe f_ct                 epair evdwl ecoul elong etail
thermo_modify   format float %15.14g norm no


dump            1 all custom 100 dump.custom id mol type x y z q
dump_modify     1 format line "%d %d %d %f %f %f %15.14e %15.14e"

timestep        0.1
run 2000
PPPM initialization ...
  using polynomial approximation for long-range coulomb (../kspace.cpp:323)
  G vector (1/distance) = 0.25925
  grid = 6 6 20
  stencil order = 5
  estimated absolute RMS force accuracy = 1.90615e-14
  estimated relative force accuracy = 5.74016e-17
  using double precision FFTW3
  3d grid and FFT values/proc = 1064 102
Neighbor list info ...
  update every 1 steps, delay 0 steps, check yes
  max neighbors/atom: 2000, page size: 100000
  master list distance cutoff = 13
  ghost atom cutoff = 13
  binsize = 6.5, bins = 4 4 4
  1 neighbor lists, perpetual/occasional/extra = 1 0 0
  (1) pair lj/charmmfsw/coul/long/bsct, perpetual
      attributes: half, newton on
      pair build: half/bin/newton
      stencil: half/bin/3d/newton
      bin: standard
                  CT   ------------------------------------
                  CT   iter               G    max|dG/dq_i|         |dG/dq|        max|q_i|      max|phi_i|            beta
PPPM initialization ...
  using polynomial approximation for long-range coulomb (../kspace.cpp:323)
  G vector (1/distance) = 0.25925
  grid = 6 6 20
  stencil order = 5
  estimated absolute RMS force accuracy = 1.90615e-14
  estimated relative force accuracy = 5.74016e-17
  using double precision FFTW3
  3d grid and FFT values/proc = 1064 102
FixBSCT_fdf: short-, long-range and total Coulomb energies: 0.000000 -0.000000 -0.000000
FixBSCT_fdf: Coulomb energy from sum of q*phi: -0.000000
                  CT      0        -0.00000         0.50012         7.07107         0.00000         0.00012         0.10000
PPPM initialization ...
  using polynomial approximation for long-range coulomb (../kspace.cpp:323)
  G vector (1/distance) = 0.167639
  grid = 3 3 12
  stencil order = 5
  estimated absolute RMS force accuracy = 0.0321622
  estimated relative force accuracy = 9.68533e-05
  using double precision FFTW3
  3d grid and FFT values/proc = 504 20
FixBSCT_fdf: short-, long-range and total Coulomb energies: 202.841867 548.920370 751.762237
FixBSCT_fdf: Coulomb energy from sum of q*phi: 751.762237
                  CT      1       747.01224       177.07629      2153.50604         0.05001       204.50143         0.10000
FixBSCT_fdf: short-, long-range and total Coulomb energies: 0.566415 -0.407798 0.158616
FixBSCT_fdf: Coulomb energy from sum of q*phi: 0.158616
                  CT      2        -0.00341         0.14729         1.46835         0.01046         0.96996         0.10000
FixBSCT_fdf: short-, long-range and total Coulomb energies: 0.173735 -0.107234 0.066500
FixBSCT_fdf: Coulomb energy from sum of q*phi: 0.066500
                  CT      3        -0.02484         0.28801         2.25779         0.00691         1.51434         0.10000
FixBSCT_fdf: short-, long-range and total Coulomb energies: 0.157194 -0.096991 0.060202
FixBSCT_fdf: Coulomb energy from sum of q*phi: 0.060202
                  CT      4        -0.02960         0.86572         5.48204         0.00616         1.46995         0.10000
FixBSCT_fdf: short-, long-range and total Coulomb energies: 0.135803 0.038710 0.174514
FixBSCT_fdf: Coulomb energy from sum of q*phi: 0.174514
                  CT      5         0.13246         2.10039        13.25849         0.00659         3.61393         0.10000
FixBSCT_fdf: short-, long-range and total Coulomb energies: 0.314265 -0.051981 0.262285
FixBSCT_fdf: Coulomb energy from sum of q*phi: 0.262285
                  CT      6         0.13845         3.45368        21.08113         0.00807         3.86502         0.10000
FixBSCT_fdf: short-, long-range and total Coulomb energies: 0.176704 0.095940 0.272645
FixBSCT_fdf: Coulomb energy from sum of q*phi: 0.272645
                  CT      7       