LAMMPS data file via write_data, version 7 Aug 2019, timestep = 0

4320 atoms
3 atom types

9.6048671111172335e-01 5.2826769111144820e+01 xlo xhi
5.5453726121341329e-01 5.0462890770420614e+01 ylo yhi
1.1763511734738601e+00 2.9016662279021840e+01 zlo zhi

Masses

1 196.966
2 22
3 35

Atoms # full

1 0 1 0.0000000000000000e+00 1.0085110466673134e+01 2.4122370862783512e+01 2.3527023469477246e+00 0 0 0
2 0 1 0.0000000000000000e+00 7.2036503333379533e+00 2.4122370862783512e+01 2.3527023469477246e+00 0 0 0
3 0 1 0.0000000000000000e+00 4.3221902000027717e+00 2.4122370862783512e+01 2.3527023469477246e+00 0 0 0
4 0 1 0.0000000000000000e+00 1.4407300666675908e+00 2.4122370862783512e+01 2.3527023469477246e+00 0 0 0
5 0 1 0.0000000000000000e+00 1.0085110466673134e+01 1.9131535511862786e+01 2.3527023469477264e+00 0 0 0
6 0 1 0.0000000000000000e+00 5.7629202666703625e+00 2.1626953187323149e+01 2.3527023469477246e+00 0 0 0
7 0 1 0.0000000000000000e+00 7.2036503333379525e+00 1.9131535511862786e+01 2.3527023469477246e+00 0 0 0
8 0 1 0.0000000000000000e+00 4.3221902000027717e+00 1.9131535511862786e+01 2.3527023469477264e+00 0 0 0
9 0 1 0.0000000000000000e+00 8.6443804000055433e+00 2.1626953187323149e+01 2.3527023469477264e+00 0 0 0
10 0 1 0.0000000000000000e+00 8.6443804000055451e+00 2.3290564970963391e+01 4.7054046938954510e+00 0 0 0
11 0 1 0.0000000000000000e+00 1.0085110466673134e+01 2.0795147295503028e+01 4.7054046938954510e+00 0 0 0
12 0 1 0.0000000000000000e+00 7.2036503333379533e+00 2.0795147295503028e+01 4.7054046938954510e+00 0 0 0
13 0 1 0.0000000000000000e+00 1.0085110466673132e+01 2.2458759079143270e+01 7.0581070408431756e+00 0 0 0
14 0 1 0.0000000000000000e+00 1.4407300666675900e+00 1.9131535511862786e+01 2.3527023469477246e+00 0 0 0
15 0 1 0.0000000000000000e+00 2.8814601333351808e+00 2.1626953187323149e+01 2.3527023469477264e+00 0 0 0
16 0 1 0.0000000000000000e+00 2.8814601333351817e+00 2.3290564970963388e+01 4.7054046938954492e+00 0 0 0
17 0 1 0.0000000000000000e+00 4.3221902000027717e+00 2.0795147295503028e+01 4.7054046938954510e+00 0 0 0
18 0 1 0.0000000000000000e+00 1.4407300666675908e+00 2.0795147295503028e+01 4.7054046938954510e+00 0 0 0
19 0 1 0.0000000000000000e+00 5.7629202666703625e+00 2.3290564970963391e+01 4.7054046938954510e+00 0 0 0
20 0 1 0.0000000000000000e+00 5.7629202666703634e+00 2.4954176754603630e+01 7.0581070408431756e+00 0 0 0
21 0 1 0.0000000000000000e+00 7.2036503333379533e+00 2.2458759079143270e+01 7.0581070408431774e+00 0 0 0
22 0 1 0.0000000000000000e+00 4.3221902000027725e+00 2.2458759079143270e+01 7.0581070408431774e+00 0 0 0
23 0 1 0.0000000000000000e+00 8.6443804000055415e+00 2.4954176754603630e+01 7.0581070408431756e+00 0 0 0
24 0 1 0.0000000000000000e+00 1.0085110466673132e+01 2.4122370862783512e+01 9.4108093877909038e+00 0 0 0
25 0 1 0.0000000000000000e+00 7.2036503333379525e+00 2.4122370862783512e+01 9.4108093877909003e+00 0 0 0
26 0 1 0.0000000000000000e+00 1.4407300666675908e+00 2.2458759079143270e+01 7.0581070408431774e+00 0 0 0
27 0 1 0.0000000000000000e+00 2.8814601333351817e+00 2.4954176754603633e+01 7.0581070408431756e+00 0 0 0
28 0 1 0.0000000000000000e+00 4.3221902000027725e+00 2.4122370862783512e+01 9.4108093877909038e+00 0 0 0
29 0 1 0.0000000000000000e+00 1.4407300666675908e+00 2.4122370862783512e+01 9.4108093877909038e+00 0 0 0
30 0 1 0.0000000000000000e+00 8.6443804000055433e+00 1.6636117836402423e+01 2.3527023469477255e+00 0 0 0
31 0 1 0.0000000000000000e+00 1.0085110466673134e+01 1.4140700160942057e+01 2.3527023469477255e+00 0 0 0
32 0 1 0.0000000000000000e+00 7.2036503333379525e+00 1.4140700160942057e+01 2.3527023469477255e+00 0 0 0
33 0 1 0.0000000000000000e+00 1.0085110466673134e+01 1.5804311944582299e+01 4.7054046938954519e+00 0 0 0
34 0 1 0.0000000000000000e+00 2.8814601333351808e+00 1.6636117836402420e+01 2.3527023469477255e+00 0 0 0
35 0 1 0.0000000000000000e+00 4.3221902000027708e+00 1.4140700160942057e+01 2.3527023469477255e+00 0 0 0
36 0 1 0.0000000000000000e+00 1.4407300666675908e+00 1.4140700160942057e+01 2.3527023469477255e+00 0 0 0
37 0 1 0.0000000000000000e+00 5.7629202666703616e+00 1.6636117836402423e+01 2.3527023469477255e+00 0 0 0
38 0 1 0.0000000000000000e+00 5.7629202666703625e+00 1.8299729620042665e+01 4.7054046938954501e+00 0 0 0
39 0 1 0.0000000000000000e+00 7.2036503333379525e+00 1.5804311944582299e+01 4.7054046938954501e+00 0 0 0
40 0 1 0.0000000000000000e+00 4.3221902000027717e+00 1.5804311944582301e+01 4.7054046938954519e+00 0 0 0
41 0 1 0.0000000000000000e+00 8.6443804000055433e+00 1.8299729620042665e+01 4.7054046938954519e+00 0 0 0
42 0 1 0.0000000000000000e+00 8.6443804000055451e+00 1.9963341403682907e+01 7.0581070408431765e+00 0 0 0
43 0 1 0.0000000000000000e+00 1.0085110466673134e+01 1.7467923728222544e+01 7.0581070408431765e+00 0 0 0
44 0 1 0.0000000000000000e+00 7.2036503333379533e+00 1.7467923728222544e+01 7.0581070408431765e+00 0 0 0
45 0 1 0.0000000000000000e+00 1.0085110466673132e+01 1.9131535511862783e+01 9.4108093877909020e+00 0 0 0
46 0 1 0.0000000000000000e+00 1.4407300666675900e+00 1.5804311944582299e+01 4.7054046938954501e+00 0 0 0
47 0 1 0.0000000000000000e+00 2.8814601333351808e+00 1.8299729620042665e+01 4.7054046938954519e+00 0 0 0
48 0 1 0.0000000000000000e+00 2.8814601333351817e+00 1.9963341403682904e+01 7.0581070408431748e+00 0 0 0
49 0 1 0.0000000000000000e+00 4.3221902000027717e+00 1.7467923728222544e+01 7.0581070408431765e+00 0 0 0
50 0 1 0.0000000000000000e+00 1.4407300666675908e+00 1.7467923728222541e+01 7.0581070408431765e+00 0 0 0
51 0 1 0.0000000000000000e+00 5.7629202666703625e+00 1.9963341403682907e+01 7.0581070408431765e+00 0 0 0
52 0 1 0.0000000000000000e+00 5.7629202666703634e+00 2.1626953187323146e+01 9.4108093877909020e+00 0 0 0
53 0 1 0.0000000000000000e+00 7.2036503333379533e+00 1.9131535511862786e+01 9.4108093877909020e+00 0 0 0
54 0 1 0.0000000000000000e+00 4.3221902000027725e+00 1.9131535511862783e+01 9.4108093877909020e+00 0 0 0
55 0 1 0.0000000000000000e+00 8.6443804000055415e+00 2.1626953187323146e+01 9.4108093877909020e+00 0 0 0
56 0 1 0.0000000000000000e+00 8.6443804000055433e+00 2.3290564970963388e+01 1.1763511734738628e+01 0 0 0
57 0 1 0.0000000000000000e+00 1.0085110466673132e+01 2.0795147295503025e+01 1.1763511734738628e+01 0 0 0
58 0 1 0.0000000000000000e+00 7.2036503333379525e+00 2.0795147295503025e+01 1.1763511734738625e+01 0 0 0
59 0 1 0.0000000000000000e+00 1.0085110466673134e+01 2.2458759079143270e+01 1.4116214081686351e+01 0 0 0
60 0 1 0.0000000000000000e+00 1.4407300666675908e+00 1.9131535511862786e+01 9.4108093877909020e+00 0 0 0
61 0 1 0.0000000000000000e+00 2.8814601333351817e+00 2.1626953187323149e+01 9.4108093877909020e+00 0 0 0
62 0 1 0.0000000000000000e+00 2.8814601333351817e+00 2.3290564970963391e+01 1.1763511734738628e+01 0 0 0
63 0 1 0.0000000000000000e+00 4.3221902000027725e+00 2.0795147295503028e+01 1.1763511734738628e+01 0 0 0
64 0 1 0.0000000000000000e+00 1.4407300666675908e+00 2.0795147295503028e+01 1.1763511734738628e+01 0 0 0
65 0 1 0.0000000000000000e+00 5.7629202666703616e+00 2.3290564970963388e+01 1.1763511734738628e+01 0 0 0
66 0 1 0.0000000000000000e+00 5.7629202666703616e+00 2.4954176754603630e+01 1.4116214081686351e+01 0 0 0
67 0 1 0.0000000000000000e+00 7.2036503333379525e+00 2.2458759079143267e+01 1.4116214081686351e+01 0 0 0
68 0 1 0.0000000000000000e+00 4.3221902000027708e+00 2.2458759079143267e+01 1.4116214081686351e+01 0 0 0
69 0 1 0.0000000000000000e+00 8.6443804000055433e+00 2.4954176754603637e+01 1.4116214081686355e+01 0 0 0
70 0 1 0.0000000000000000e+00 1.4407300666675908e+00 2.2458759079143270e+01 1.4116214081686351e+01 0 0 0
71 0 1 0.0000000000000000e+00 2.8814601333351799e+00 2.4954176754603630e+01 1.4116214081686351e+01 0 0 0
72 0 1 0.0000000000000000e+00 1.0085110466673134e+01 9.1498648100213327e+00 2.3527023469477260e+00 0 0 0
73 0 1 0.0000000000000000e+00 5.7629202666703616e+00 1.1645282485481694e+01 2.3527023469477246e+00 0 0 0
74 0 1 0.0000000000000000e+00 7.2036503333379525e+00 9.1498648100213309e+00 2.3527023469477251e+00 0 0 0
75 0 1 0.0000000000000000e+00 4.3221902000027717e+00 9.1498648100213327e+00 2.3527023469477260e+00 0 0 0
76 0 1 0.0000000000000000e+00 8.6443804000055433e+00 1.1645282485481696e+01 2.3527023469477255e+00 0 0 0
77 0 1 0.0000000000000000e+00 8.6443804000055433e+00 1.3308894269121938e+01 4.7054046938954510e+00 0 0 0
78 0 1 0.0000000000000000e+00 1.0085110466673134e+01 1.0813476593661575e+01 4.7054046938954510e+00 0 0 0
79 0 1 0.0000000000000000e+00 7.2036503333379525e+00 1.0813476593661575e+01 4.7054046938954510e+00 0 0 0
80 0 1 0.0000000000000000e+00 1.0085110466673134e+01 1.2477088377301817e+01 7.0581070408431774e+00 0 0 0
81 0 1 0.0000000000000000e+00 1.4407300666675904e+00 9.1498648100213327e+00 2.3527023469477260e+00 0 0 0
82 0 1 0.0000000000000000e+00 2.8814601333351813e+00 1.1645282485481696e+01 2.3527023469477255e+00 0 0 0
83 0 1 0.0000000000000000e+00 2.8814601333351808e+00 1.3308894269121936e+01 4.7054046938954510e+00 0 0 0
84 0 1 0.0000000000000000e+00 4.3221902000027708e+00 1.0813476593661573e+01 4.7054046938954510e+00 0 0 0
85 0 1 0.0000000000000000e+00 1.4407300666675908e+00 1.0813476593661575e+01 4.7054046938954510e+00 0 0 0
86 0 1 0.0000000000000000e+00 5.7629202666703616e+00 1.3308894269121938e+01 4.7054046938954510e+00 0 0 0
87 0 1 0.0000000000000000e+00 5.7629202666703625e+00 1.4972506052762181e+01 7.0581070408431756e+00 0 0 0
88 0 1 0.0000000000000000e+00 7.2036503333379525e+00 1.2477088377301817e+01 7.0581070408431756e+00 0 0 0
89 0 1 0.0000000000000000e+00 4.3221902000027717e+00 1.2477088377301818e+01 7.0581070408431774e+00 0 0 0
90 0 1 0.0000000000000000e+00 8.6443804000055433e+00 1.4972506052762181e+01 7.0581070408431774e+00 0 0 0
91 0 1 0.0000000000000000e+00 8.6443804000055451e+00 1.6636117836402423e+01 9.4108093877909020e+00 0 0 0
92 0 1 0.0000000000000000e+00 1.0085110466673134e+01 1.4140700160942060e+01 9.4108093877909020e+00 0 0 0
93 0 1 0.0000000000000000e+00 7.2036503333379533e+00 1.4140700160942060e+01 9.4108093877909020e+00 0 0 0
94 0 1 0.0000000000000000e+00 1.0085110466673132e+01 1.5804311944582299e+01 1.1763511734738627e+01 0 0 0
95 0 1 0.0000000000000000e+00 1.4407300666675900e+00 1.2477088377301815e+01 7.0581070408431756e+00 0 0 0
96 0 1 0.0000000000000000e+00 2.8814601333351808e+00 1.4972506052762181e+01 7.0581070408431774e+00 0 0 0
97 0 1 0.0000000000000000e+00 2.8814601333351817e+00 1.6636117836402420e+01 9.4108093877909003e+00 0 0 0
98 0 1 0.0000000000000000e+00 4.3221902000027717e+00 1.4140700160942060e+01 9.4108093877909020e+00 0 0 0
99 0 1 0.0000000000000000e+00 1.4407300666675908e+00 1.4140700160942057e+01 9.4108093877909020e+00 0 0 0
100 0 1 0.0000000000000000e+00 5.7629202666703625e+00 1.6636117836402423e+01 9.4108093877909020e+00 0 0 0
101 0 1 0.0000000000000000e+00 5.7629202666703634e+00 1.8299729620042662e+01 1.1763511734738627e+01 0 0 0
102 0 1 0.0000000000000000e+00 7.2036503333379533e+00 1.5804311944582302e+01 1.1763511734738628e+01 0 0 0
103 0 1 0.0000000000000000e+00 4.3221902000027725e+00 1.5804311944582299e+01 1.1763511734738628e+01 0 0 0
104 0 1 0.0000000000000000e+00 8.6443804000055415e+00 1.8299729620042662e+01 1.1763511734738627e+01 0 0 0
105 0 1 0.0000000000000000e+00 8.6443804000055433e+00 1.9963341403682904e+01 1.4116214081686353e+01 0 0 0
106 0 1 0.0000000000000000e+00 1.0085110466673132e+01 1.7467923728222541e+01 1.4116214081686355e+01 0 0 0
107 0 1 0.0000000000000000e+00 7.2036503333379525e+00 1.7467923728222541e+01 1.4116214081686351e+01 0 0 0
108 0 1 0.0000000000000000e+00 1.4407300666675908e+00 1.5804311944582302e+01 1.1763511734738628e+01 0 0 0
109 0 1 0.0000000000000000e+00 2.8814601333351817e+00 1.8299729620042665e+01 1.1763511734738627e+01 0 0 0
110 0 1 0.0000000000000000e+00 2.8814601333351817e+00 1.9963341403682907e+01 1.4116214081686353e+01 0 0 0
111 0 1 0.0000000000000000e+00 4.3221902000027725e+00 1.7467923728222544e+01 1.4116214081686355e+01 0 0 0
112 0 1 0.0000000000000000e+00 1.4407300666675908e+00 1.7467923728222544e+01 1.4116214081686355e+01 0 0 0
113 0 1 0.0000000000000000e+00 5.7629202666703616e+00 1.9963341403682904e+01 1.4116214081686353e+01 0 0 0
114 0 1 0.0000000000000000e+00 8.6443804000055433e+00 6.6544471345609679e+00 2.3527023469477255e+00 0 0 0
115 0 1 0.0000000000000000e+00 1.0085110466673134e+01 4.1590294591006050e+00 2.3527023469477251e+00 0 0 0
116 0 1 0.0000000000000000e+00 7.2036503333379533e+00 4.1590294591006058e+00 2.3527023469477255e+00 0 0 0
117 0 1 0.0000000000000000e+00 1.0085110466673134e+01 5.8226412427408478e+00 4.7054046938954510e+00 0 0 0
118 0 1 0.0000000000000000e+00 2.8814601333351808e+00 6.6544471345609688e+00 2.3527023469477255e+00 0 0 0
119 0 1 0.0000000000000000e+00 4.3221902000027717e+00 4.1590294591006058e+00 2.3527023469477255e+00 0 0 0
120 0 1 0.0000000000000000e+00 1.4407300666675906e+00 4.1590294591006058e+00 2.3527023469477255e+00 0 0 0
121 0 1 0.0000000000000000e+00 5.7629202666703625e+00 6.6544471345609688e+00 2.3527023469477255e+00 0 0 0
122 0 1 0.0000000000000000e+00 5.7629202666703616e+00 8.3180589182012099e+00 4.7054046938954501e+00 0 0 0
123 0 1 0.0000000000000000e+00 7.2036503333379525e+00 5.8226412427408469e+00 4.7054046938954510e+00 0 0 0
124 0 1 0.0000000000000000e+00 4.3221902000027717e+00 5.8226412427408478e+00 4.7054046938954510e+00 0 0 0
125 0 1 0.0000000000000000e+00 8.6443804000055433e+00 8.3180589182012117e+00 4.7054046938954510e+00 0 0 0
126 0 1 0.0000000000000000e+00 8.6443804000055433e+00 9.9816707018414537e+00 7.0581070408431765e+00 0 0 0
127 0 1 0.0000000000000000e+00 1.0085110466673134e+01 7.4862530263810898e+00 7.0581070408431756e+00 0 0 0
128 0 1 0.0000000000000000e+00 7.2036503333379525e+00 7.4862530263810898e+00 7.0581070408431756e+00 0 0 0
129 0 1 0.0000000000000000e+00 1.0085110466673134e+01 9.1498648100213327e+00 9.4108093877909020e+00 0 0 0
130 0 1 0.0000000000000000e+00 1.4407300666675904e+00 5.8226412427408478e+00 4.7054046938954510e+00 0 0 0
131 0 1 0.0000000000000000e+00 2.8814601333351813e+00 8.3180589182012117e+00 4.7054046938954510e+00 0 0 0
132 0 1 0.0000000000000000e+00 2.8814601333351808e+00 9.9816707018414519e+00 7.0581070408431765e+00 0 0 0
133 0 1 0.0000000000000000e+00 4.3221902000027708e+00 7.4862530263810889e+00 7.0581070408431756e+00 0 0 0
134 0 1 0.0000000000000000e+00 1.4407300666675908e+00 7.4862530263810898e+00 7.0581070408431756e+00 0 0 0
135 0 1 0.0000000000000000e+00 5.7629202666703616e+00 9.9816707018414537e+00 7.0581070408431765e+00 0 0 0
136 0 1 0.0000000000000000e+00 5.7629202666703625e+00 1.1645282485481696e+01 9.4108093877909020e+00 0 0 0
137 0 1 0.0000000000000000e+00 7.2036503333379525e+00 9.1498648100213327e+00 9.4108093877909003e+00 0 0 0
138 0 1 0.0000000000000000e+00 4.3221902000027717e+00 9.1498648100213327e+00 9.4108093877909020e+00 0 0 0
139 0 1 0.0000000000000000e+00 8.6443804000055433e+00 1.1645282485481696e+01 9.4108093877909020e+00 0 0 0
140 0 1 0.0000000000000000e+00 8.6443804000055451e+00 1.3308894269121938e+01 1.1763511734738628e+01 0 0 0
141 0 1 0.0000000000000000e+00 1.0085110466673134e+01 1.0813476593661575e+01 1.1763511734738627e+01 0 0 0
142 0 1 0.0000000000000000e+00 7.2036503333379533e+00 1.0813476593661575e+01 1.1763511734738627e+01 0 0 0
143 0 1 0.0000000000000000e+00 1.0085110466673132e+01 1.2477088377301815e+01 1.4116214081686351e+01 0 0 0
144 0 1 0.0000000000000000e+00 1.4407300666675900e+00 9.1498648100213309e+00 9.4108093877909003e+00 0 0 0
145 0 1 0.0000000000000000e+00 2.8814601333351808e+00 1.1645282485481696e+01 9.4108093877909020e+00 0 0 0
146 0 1 0.0000000000000000e+00 2.8814601333351817e+00 1.3308894269121936e+01 1.1763511734738625e+01 0 0 0
147 0 1 0.0000000000000000e+00 4.3221902000027717e+00 1.0813476593661575e+01 1.1763511734738627e+01 0 0 0
148 0 1 0.0000000000000000e+00 1.4407300666675908e+00 1.0813476593661573e+01 1.1763511734738627e+01 0 0 0
149 0 1 0.0000000000000000e+00 5.7629202666703625e+00 1.3308894269121938e+01 1.1763511734738628e+01 0 0 0
150 0 1 0.0000000000000000e+00 5.7629202666703634e+00 1.4972506052762178e+01 1.4116214081686351e+01 0 0 0
151 0 1 0.0000000000000000e+00 7.2036503333379533e+00 1.2477088377301817e+01 1.4116214081686353e+01 0 0 0
152 0 1 0.0000000000000000e+00 4.3221902000027725e+00 1.2477088377301815e+01 1.4116214081686353e+01 0 0 0
153 0 1 0.0000000000000000e+00 8.6443804000055415e+00 1.4972506052762178e+01 1.4116214081686351e+01 0 0 0
154 0 1 0.0000000000000000e+00 1.4407300666675908e+00 1.2477088377301817e+01 1.4116214081686353e+01 0 0 0
155 0 1 0.0000000000000000e+00 2.8814601333351817e+00 1.4972506052762180e+01 1.4116214081686351e+01 0 0 0
156 0 1 0.0000000000000000e+00 5.7629202666703625e+00 1.6636117836402424e+00 2.3527023469477255e+00 0 0 0
157 0 1 0.0000000000000000e+00 8.6443804000055433e+00 1.6636117836402422e+00 2.3527023469477255e+00 0 0 0
158 0 1 0.0000000000000000e+00 8.6443804000055433e+00 3.3272235672804840e+00 4.7054046938954510e+00 0 0 0
159 0 1 0.0000000000000000e+00 1.0085110466673134e+01 8.3180589182012077e-01 4.7054046938954510e+00 0 0 0
160 0 1 0.0000000000000000e+00 7.2036503333379533e+00 8.3180589182012121e-01 4.7054046938954510e+00 0 0 0
161 0 1 0.0000000000000000e+00 1.0085110466673134e+01 2.4954176754603639e+00 7.0581070408431774e+00 0 0 0
162 0 1 0.0000000000000000e+00 2.8814601333351813e+00 1.6636117836402422e+00 2.3527023469477255e+00 0 0 0
163 0 1 0.0000000000000000e+00 2.8814601333351808e+00 3.3272235672804844e+00 4.7054046938954510e+00 0 0 0
164 0 1 0.0000000000000000e+00 4.3221902000027717e+00 8.3180589182012121e-01 4.7054046938954510e+00 0 0 0
165 0 1 0.0000000000000000e+00 1.4407300666675906e+00 8.3180589182012121e-01 4.7054046938954510e+00 0 0 0
166 0 1 0.0000000000000000e+00 5.7629202666703625e+00 3.3272235672804844e+00 4.7054046938954510e+00 0 0 0
167 0 1 0.0000000000000000e+00 5.7629202666703616e+00 4.9908353509207259e+00 7.0581070408431756e+00 0 0 0
168 0 1 0.0000000000000000e+00 7.2036503333379525e+00 2.4954176754603630e+00 7.0581070408431756e+00 0 0 0
169 0 1 0.0000000000000000e+00 4.3221902000027717e+00 2.4954176754603639e+00 7.0581070408431774e+00 0 0 0
170 0 1 0.0000000000000000e+00 8.6443804000055433e+00 4.9908353509207268e+00 7.0581070408431765e+00 0 0 0
171 0 1 0.0000000000000000e+00 8.6443804000055433e+00 6.6544471345609688e+00 9.4108093877909020e+00 0 0 0
172 0 1 0.0000000000000000e+00 1.0085110466673134e+01 4.1590294591006058e+00 9.4108093877909020e+00 0 0 0
173 0 1 0.0000000000000000e+00 7.2036503333379525e+00 4.1590294591006058e+00 9.4108093877909020e+00 0 0 0
174 0 1 0.0000000000000000e+00 1.0085110466673134e+01 5.8226412427408478e+00 1.1763511734738628e+01 0 0 0
175 0 1 0.0000000000000000e+00 1.4407300666675904e+00 2.4954176754603639e+00 7.0581070408431774e+00 0 0 0
176 0 1 0.0000000000000000e+00 2.8814601333351813e+00 4.9908353509207268e+00 7.0581070408431765e+00 0 0 0
177 0 1 0.0000000000000000e+00 2.8814601333351808e+00 6.6544471345609679e+00 9.4108093877909020e+00 0 0 0
178 0 1 0.0000000000000000e+00 4.3221902000027708e+00 4.1590294591006050e+00 9.4108093877909020e+00 0 0 0
179 0 1 0.0000000000000000e+00 1.4407300666675908e+00 4.1590294591006058e+00 9.4108093877909020e+00 0 0 0
180 0 1 0.0000000000000000e+00 5.7629202666703616e+00 6.6544471345609688e+00 9.4108093877909020e+00 0 0 0
181 0 1 0.0000000000000000e+00 5.7629202666703625e+00 8.3180589182012117e+00 1.1763511734738627e+01 0 0 0
182 0 1 0.0000000000000000e+00 7.2036503333379525e+00 5.8226412427408478e+00 1.1763511734738627e+01 0 0 0
183 0 1 0.0000000000000000e+00 4.3221902000027717e+00 5.8226412427408487e+00 1.1763511734738628e+01 0 0 0
184 0 1 0.0000000000000000e+00 8.6443804000055433e+00 8.3180589182012117e+00 1.1763511734738628e+01 0 0 0
185 0 1 0.0000000000000000e+00 8.6443804000055451e+00 9.9816707018414537e+00 1.4116214081686353e+01 0 0 0
186 0 1 0.0000000000000000e+00 1.0085110466673134e+01 7.4862530263810907e+00 1.4116214081686353e+01 0 0 0
187 0 1 0.0000000000000000e+00 7.2036503333379533e+00 7.4862530263810907e+00 1.4116214081686353e+01 0 0 0
188 0 1 0.0000000000000000e+00 1.4407300666675900e+00 5.8226412427408469e+00 1.1763511734738627e+01 0 0 0
189 0 1 0.0000000000000000e+00 2.8814601333351808e+00 8.3180589182012117e+00 1.1763511734738628e+01 0 0 0
190 0 1 0.0000000000000000e+00 2.8814601333351817e+00 9.9816707018414519e+00 1.4116214081686351e+01 0 0 0
191 0 1 0.0000000000000000e+00 4.3221902000027717e+00 7.4862530263810907e+00 1.4116214081686353e+01 0 0 0
192 0 1 0.0000000000000000e+00 1.4407300666675908e+00 7.4862530263810889e+00 1.4116214081686353e+01 0 0 0
193 0 1 0.0000000000000000e+00 5.7629202666703625e+00 9.9816707018414537e+00 1.4116214081686353e+01 0 0 0
194 0 1 0.0000000000000000e+00 5.7629202666703616e+00 1.6636117836402415e+00 9.4108093877909020e+00 0 0 0
195 0 1 0.0000000000000000e+00 8.6443804000055433e+00 1.6636117836402424e+00 9.4108093877909020e+00 0 0 0
196 0 1 0.0000000000000000e+00 8.6443804000055433e+00 3.3272235672804844e+00 1.1763511734738628e+01 0 0 0
197 0 1 0.0000000000000000e+00 1.0085110466673134e+01 8.3180589182012099e-01 1.1763511734738627e+01 0 0 0
198 0 1 0.0000000000000000e+00 7.2036503333379525e+00 8.3180589182012099e-01 1.1763511734738627e+01 0 0 0
199 0 1 0.0000000000000000e+00 1.0085110466673134e+01 2.4954176754603630e+00 1.4116214081686353e+01 0 0 0
200 0 1 0.0000000000000000e+00 2.8814601333351813e+00 1.6636117836402424e+00 9.4108093877909020e+00 0 0 0
201 0 1 0.0000000000000000e+00 2.8814601333351808e+00 3.3272235672804835e+00 1.1763511734738628e+01 0 0 0
202 0 1 0.0000000000000000e+00 4.3221902000027708e+00 8.3180589182012010e-01 1.1763511734738627e+01 0 0 0
203 0 1 0.0000000000000000e+00 1.4407300666675908e+00 8.3180589182012099e-01 1.1763511734738627e+01 0 0 0
204 0 1 0.0000000000000000e+00 5.7629202666703616e+00 3.3272235672804844e+00 1.1763511734738628e+01 0 0 0
205 0 1 0.0000000000000000e+00 5.7629202666703625e+00 4.9908353509207277e+00 1.4116214081686351e+01 0 0 0
206 0 1 0.0000000000000000e+00 7.2036503333379525e+00 2.4954176754603630e+00 1.4116214081686351e+01 0 0 0
207 0 1 0.0000000000000000e+00 4.3221902000027717e+00 2.4954176754603639e+00 1.4116214081686353e+01 0 0 0
208 0 1 0.0000000000000000e+00 8.6443804000055433e+00 4.9908353509207277e+00 1.4116214081686355e+01 0 0 0
209 0 1 0.0000000000000000e+00 1.4407300666675900e+00 2.4954176754603621e+00 1.4116214081686351e+01 0 0 0
210 0 1 0.0000000000000000e+00 2.8814601333351808e+00 4.9908353509207277e+00 1.4116214081686355e+01 0 0 0
211 0 1 0.0000000000000000e+00 1.0085110466673134e+01 2.4122370862783509e+01 1.6468916428634078e+01 0 0 0
212 0 1 0.0000000000000000e+00 7.2036503333379525e+00 2.4122370862783512e+01 1.6468916428634078e+01 0 0 0
213 0 1 0.0000000000000000e+00 4.3221902000027708e+00 2.4122370862783509e+01 1.6468916428634078e+01 0 0 0
214 0 1 0.0000000000000000e+00 1.4407300666675891e+00 2.4122370862783509e+01 1.6468916428634078e+01 0 0 0
215 0 1 0.0000000000000000e+00 1.0085110466673134e+01 1.9131535511862786e+01 1.6468916428634078e+01 0 0 0
216 0 1 0.0000000000000000e+00 5.7629202666703616e+00 2.1626953187323146e+01 1.6468916428634074e+01 0 0 0
217 0 1 0.0000000000000000e+00 7.2036503333379525e+00 1.9131535511862783e+01 1.6468916428634078e+01 0 0 0
218 0 1 0.0000000000000000e+00 4.3221902000027708e+00 1.9131535511862783e+01 1.6468916428634078e+01 0 0 0
219 0 1 0.0000000000000000e+00 8.6443804000055433e+00 2.1626953187323149e+01 1.6468916428634081e+01 0 0 0
220 0 1 0.0000000000000000e+00 8.6443804000055433e+00 2.3290564970963388e+01 1.8821618775581804e+01 0 0 0
221 0 1 0.0000000000000000e+00 1.0085110466673134e+01 2.0795147295503025e+01 1.8821618775581804e+01 0 0 0
222 0 1 0.0000000000000000e+00 7.2036503333379525e+00 2.0795147295503028e+01 1.8821618775581804e+01 0 0 0
223 0 1 0.0000000000000000e+00 1.0085110466673134e+01 2.2458759079143270e+01 2.1174321122529530e+01 0 0 0
224 0 1 0.0000000000000000e+00 1.4407300666675908e+00 1.9131535511862786e+01 1.6468916428634078e+01 0 0 0
225 0 1 0.0000000000000000e+00 2.8814601333351799e+00 2.1626953187323146e+01 1.6468916428634074e+01 0 0 0
226 0 1 0.0000000000000000e+00 2.8814601333351799e+00 2.3290564970963388e+01 1.8821618775581804e+01 0 0 0
227 0 1 0.0000000000000000e+00 4.3221902000027708e+00 2.0795147295503025e+01 1.8821618775581804e+01 0 0 0
228 0 1 0.0000000000000000e+00 1.4407300666675891e+00 2.0795147295503025e+01 1.8821618775581804e+01 0 0 0
229 0 1 0.0000000000000000e+00 5.7629202666703616e+00 2.3290564970963391e+01 1.8821618775581804e+01 0 0 0
230 0 1 0.0000000000000000e+00 5.7629202666703616e+00 2.4954176754603630e+01 2.1174321122529527e+01 0 0 0
231 0 1 0.0000000000000000e+00 7.2036503333379525e+00 2.2458759079143267e+01 2.1174321122529530e+01 0 0 0
232 0 1 0.0000000000000000e+00 4.3221902000027708e+00 2.2458759079143270e+01 2.1174321122529530e+01 0 0 0
233 0 1 0.0000000000000000e+00 8.6443804000055433e+00 2.4954176754603633e+01 2.1174321122529527e+01 0 0 0
234 0 1 0.0000000000000000e+00 1.0085110466673131e+01 2.4122370862783509e+01 2.3527023469477253e+01 0 0 0
235 0 1 0.0000000000000000e+00 7.2036503333379525e+00 2.4122370862783512e+01 2.3527023469477253e+01 0 0 0
236 0 1 0.0000000000000000e+00 1.4407300666675908e+00 2.2458759079143267e+01 2.1174321122529530e+01 0 0 0
237 0 1 0.0000000000000000e+00 2.8814601333351817e+00 2.4954176754603630e+01 2.1174321122529527e+01 0 0 0
238 0 1 0.0000000000000000e+00 4.3221902000027725e+00 2.4122370862783509e+01 2.3527023469477253e+01 0 0 0
239 0 1 0.0000000000000000e+00 1.4407300666675908e+00 2.4122370862783512e+01 2.3527023469477253e+01 0 0 0
240 0 1 0.0000000000000000e+00 8.6443804000055433e+00 1.6636117836402420e+01 1.6468916428634078e+01 0 0 0
241 0 1 0.0000000000000000e+00 1.0085110466673132e+01 1.4140700160942057e+01 1.6468916428634081e+01 0 0 0
242 0 1 0.0000000000000000e+00 7.2036503333379525e+00 1.4140700160942057e+01 1.6468916428634078e+01 0 0 0
243 0 1 0.0000000000000000e+00 1.0085110466673134e+01 1.5804311944582301e+01 1.8821618775581804e+01 0 0 0
244 0 1 0.0000000000000000e+00 2.8814601333351817e+00 1.6636117836402423e+01 1.6468916428634078e+01 0 0 0
245 0 1 0.0000000000000000e+00 4.3221902000027725e+00 1.4140700160942059e+01 1.6468916428634081e+01 0 0 0
246 0 1 0.0000000000000000e+00 1.4407300666675908e+00 1.4140700160942059e+01 1.6468916428634081e+01 0 0 0
247 0 1 0.0000000000000000e+00 5.7629202666703616e+00 1.6636117836402420e+01 1.6468916428634078e+01 0 0 0
248 0 1 0.0000000000000000e+00 5.7629202666703616e+00 1.8299729620042662e+01 1.8821618775581801e+01 0 0 0
249 0 1 0.0000000000000000e+00 7.2036503333379525e+00 1.5804311944582299e+01 1.8821618775581804e+01 0 0 0
250 0 1 0.0000000000000000e+00 4.3221902000027708e+00 1.5804311944582299e+01 1.8821618775581804e+01 0 0 0
251 0 1 0.0000000000000000e+00 8.6443804000055433e+00 1.8299729620042665e+01 1.8821618775581804e+01 0 0 0
252 0 1 0.0000000000000000e+00 8.6443804000055433e+00 1.9963341403682904e+01 2.1174321122529527e+01 0 0 0
253 0 1 0.0000000000000000e+00 1.0085110466673134e+01 1.7467923728222541e+01 2.1174321122529530e+01 0 0 0
254 0 1 0.0000000000000000e+00 7.2036503333379525e+00 1.7467923728222544e+01 2.1174321122529530e+01 0 0 0
255 0 1 0.0000000000000000e+00 1.0085110466673134e+01 1.9131535511862786e+01 2.3527023469477257e+01 0 0 0
256 0 1 0.0000000000000000e+00 1.4407300666675908e+00 1.5804311944582301e+01 1.8821618775581804e+01 0 0 0
257 0 1 0.0000000000000000e+00 2.8814601333351799e+00 1.8299729620042662e+01 1.8821618775581801e+01 0 0 0
258 0 1 0.0000000000000000e+00 2.8814601333351799e+00 1.9963341403682904e+01 2.1174321122529530e+01 0 0 0
259 0 1 0.0000000000000000e+00 4.3221902000027708e+00 1.7467923728222541e+01 2.1174321122529530e+01 0 0 0
260 0 1 0.0000000000000000e+00 1.4407300666675891e+00 1.7467923728222541e+01 2.1174321122529530e+01 0 0 0
261 0 1 0.0000000000000000e+00 5.7629202666703616e+00 1.9963341403682907e+01 2.1174321122529530e+01 0 0 0
262 0 1 0.0000000000000000e+00 5.7629202666703616e+00 2.1626953187323146e+01 2.3527023469477253e+01 0 0 0
263 0 1 0.0000000000000000e+00 7.2036503333379525e+00 1.9131535511862783e+01 2.3527023469477257e+01 0 0 0
264 0 1 0.0000000000000000e+00 4.3221902000027708e+00 1.9131535511862786e+01 2.3527023469477257e+01 0 0 0
265 0 1 0.0000000000000000e+00 8.6443804000055433e+00 2.1626953187323149e+01 2.3527023469477253e+01 0 0 0
266 0 1 0.0000000000000000e+00 8.6443804000055398e+00 2.3290564970963388e+01 2.5879725816424976e+01 0 0 0
267 0 1 0.0000000000000000e+00 1.0085110466673131e+01 2.0795147295503025e+01 2.5879725816424980e+01 0 0 0
268 0 1 0.0000000000000000e+00 7.2036503333379525e+00 2.0795147295503028e+01 2.5879725816424980e+01 0 0 0
269 0 1 0.0000000000000000e+00 1.0085110466673134e+01 2.2458759079143270e+01 2.8232428163372710e+01 0 0 0
270 0 1 0.0000000000000000e+00 1.4407300666675908e+00 1.9131535511862783e+01 2.3527023469477257e+01 0 0 0
271 0 1 0.0000000000000000e+00 2.8814601333351817e+00 2.1626953187323146e+01 2.3527023469477253e+01 0 0 0
272 0 1 0.0000000000000000e+00 2.8814601333351817e+00 2.3290564970963388e+01 2.5879725816424976e+01 0 0 0
273 0 1 0.0000000000000000e+00 4.3221902000027725e+00 2.0795147295503025e+01 2.5879725816424980e+01 0 0 0
274 0 1 0.0000000000000000e+00 1.4407300666675908e+00 2.0795147295503028e+01 2.5879725816424980e+01 0 0 0
275 0 1 0.0000000000000000e+00 5.7629202666703634e+00 2.3290564970963388e+01 2.5879725816424976e+01 0 0 0
276 0 1 0.0000000000000000e+00 5.7629202666703598e+00 2.4954176754603630e+01 2.8232428163372703e+01 0 0 0
277 0 1 0.0000000000000000e+00 7.2036503333379507e+00 2.2458759079143267e+01 2.8232428163372703e+01 0 0 0
278 0 1 0.0000000000000000e+00 4.3221902000027725e+00 2.2458759079143270e+01 2.8232428163372706e+01 0 0 0
279 0 1 0.0000000000000000e+00 8.6443804000055451e+00 2.4954176754603630e+01 2.8232428163372706e+01 0 0 0
280 0 1 0.0000000000000000e+00 1.4407300666675908e+00 2.2458759079143270e+01 2.8232428163372706e+01 0 0 0
281 0 1 0.0000000000000000e+00 2.8814601333351817e+00 2.4954176754603633e+01 2.8232428163372706e+01 0 0 0