LAMMPS data file via write_data, version 7 Aug 2019, timestep = 0

200 atoms
3 atom types

0.0000000000000000e+00 2.0000000000000000e+01 xlo xhi
0.0000000000000000e+00 2.0000000000000000e+01 ylo yhi
0.0000000000000000e+00 8.0000000000000000e+00 zlo zhi

Masses

1 196
2 22
3 35

Atoms # full

1 0 1 0.0000000000000000e+00 0.0000000000000000e+00 0.0000000000000000e+00 0.0000000000000000e+00 0 0 0
101 0 1 0.0000000000000000e+00 0.0000000000000000e+00 0.0000000000000000e+00 4.0000000000000000e+00 0 0 0
5 0 1 0.0000000000000000e+00 4.0000000000000000e+00 0.0000000000000000e+00 0.0000000000000000e+00 0 0 0
105 0 1 0.0000000000000000e+00 4.0000000000000000e+00 0.0000000000000000e+00 4.0000000000000000e+00 0 0 0
2 0 1 0.0000000000000000e+00 0.0000000000000000e+00 2.0000000000000000e+00 2.0000000000000000e+00 0 0 0
102 0 1 0.0000000000000000e+00 0.0000000000000000e+00 2.0000000000000000e+00 6.0000000000000000e+00 0 0 0
6 0 1 0.0000000000000000e+00 4.0000000000000000e+00 2.0000000000000000e+00 2.0000000000000000e+00 0 0 0
106 0 1 0.0000000000000000e+00 4.0000000000000000e+00 2.0000000000000000e+00 6.0000000000000000e+00 0 0 0
3 0 1 0.0000000000000000e+00 2.0000000000000000e+00 0.0000000000000000e+00 2.0000000000000000e+00 0 0 0
103 0 1 0.0000000000000000e+00 2.0000000000000000e+00 0.0000000000000000e+00 6.0000000000000000e+00 0 0 0
4 0 1 0.0000000000000000e+00 2.0000000000000000e+00 2.0000000000000000e+00 0.0000000000000000e+00 0 0 0
104 0 1 0.0000000000000000e+00 2.0000000000000000e+00 2.0000000000000000e+00 4.0000000000000000e+00 0 0 0
21 0 1 0.0000000000000000e+00 0.0000000000000000e+00 4.0000000000000000e+00 0.0000000000000000e+00 0 0 0
121 0 1 0.0000000000000000e+00 0.0000000000000000e+00 4.0000000000000000e+00 4.0000000000000000e+00 0 0 0
25 0 1 0.0000000000000000e+00 4.0000000000000000e+00 4.0000000000000000e+00 0.0000000000000000e+00 0 0 0
125 0 1 0.0000000000000000e+00 4.0000000000000000e+00 4.0000000000000000e+00 4.0000000000000000e+00 0 0 0
22 0 1 0.0000000000000000e+00 0.0000000000000000e+00 6.0000000000000000e+00 2.0000000000000000e+00 0 0 0
122 0 1 0.0000000000000000e+00 0.0000000000000000e+00 6.0000000000000000e+00 6.0000000000000000e+00 0 0 0
26 0 1 0.0000000000000000e+00 4.0000000000000000e+00 6.0000000000000000e+00 2.0000000000000000e+00 0 0 0
126 0 1 0.0000000000000000e+00 4.0000000000000000e+00 6.0000000000000000e+00 6.0000000000000000e+00 0 0 0
23 0 1 0.0000000000000000e+00 2.0000000000000000e+00 4.0000000000000000e+00 2.0000000000000000e+00 0 0 0
123 0 1 0.0000000000000000e+00 2.0000000000000000e+00 4.0000000000000000e+00 6.0000000000000000e+00 0 0 0
24 0 1 0.0000000000000000e+00 2.0000000000000000e+00 6.0000000000000000e+00 0.0000000000000000e+00 0 0 0
124 0 1 0.0000000000000000e+00 2.0000000000000000e+00 6.0000000000000000e+00 4.0000000000000000e+00 0 0 0
41 0 1 0.0000000000000000e+00 0.0000000000000000e+00 8.0000000000000000e+00 0.0000000000000000e+00 0 0 0
141 0 1 0.0000000000000000e+00 0.0000000000000000e+00 8.0000000000000000e+00 4.0000000000000000e+00 0 0 0
45 0 1 0.0000000000000000e+00 4.0000000000000000e+00 8.0000000000000000e+00 0.0000000000000000e+00 0 0 0
145 0 1 0.0000000000000000e+00 4.0000000000000000e+00 8.0000000000000000e+00 4.0000000000000000e+00 0 0 0
42 0 1 0.0000000000000000e+00 0.0000000000000000e+00 1.0000000000000000e+01 2.0000000000000000e+00 0 0 0
142 0 1 0.0000000000000000e+00 0.0000000000000000e+00 1.0000000000000000e+01 6.0000000000000000e+00 0 0 0
46 0 1 0.0000000000000000e+00 4.0000000000000000e+00 1.0000000000000000e+01 2.0000000000000000e+00 0 0 0
146 0 1 0.0000000000000000e+00 4.0000000000000000e+00 1.0000000000000000e+01 6.0000000000000000e+00 0 0 0
43 0 1 0.0000000000000000e+00 2.0000000000000000e+00 8.0000000000000000e+00 2.0000000000000000e+00 0 0 0
143 0 1 0.0000000000000000e+00 2.0000000000000000e+00 8.0000000000000000e+00 6.0000000000000000e+00 0 0 0
44 0 1 0.0000000000000000e+00 2.0000000000000000e+00 1.0000000000000000e+01 0.0000000000000000e+00 0 0 0
144 0 1 0.0000000000000000e+00 2.0000000000000000e+00 1.0000000000000000e+01 4.0000000000000000e+00 0 0 0
61 0 1 0.0000000000000000e+00 0.0000000000000000e+00 1.2000000000000000e+01 0.0000000000000000e+00 0 0 0
161 0 1 0.0000000000000000e+00 0.0000000000000000e+00 1.2000000000000000e+01 4.0000000000000000e+00 0 0 0
65 0 1 0.0000000000000000e+00 4.0000000000000000e+00 1.2000000000000000e+01 0.0000000000000000e+00 0 0 0
165 0 1 0.0000000000000000e+00 4.0000000000000000e+00 1.2000000000000000e+01 4.0000000000000000e+00 0 0 0
62 0 1 0.0000000000000000e+00 0.0000000000000000e+00 1.4000000000000000e+01 2.0000000000000000e+00 0 0 0
162 0 1 0.0000000000000000e+00 0.0000000000000000e+00 1.4000000000000000e+01 6.0000000000000000e+00 0 0 0
66 0 1 0.0000000000000000e+00 4.0000000000000000e+00 1.4000000000000000e+01 2.0000000000000000e+00 0 0 0
166 0 1 0.0000000000000000e+00 4.0000000000000000e+00 1.4000000000000000e+01 6.0000000000000000e+00 0 0 0
63 0 1 0.0000000000000000e+00 2.0000000000000000e+00 1.2000000000000000e+01 2.0000000000000000e+00 0 0 0
163 0 1 0.0000000000000000e+00 2.0000000000000000e+00 1.2000000000000000e+01 6.0000000000000000e+00 0 0 0
64 0 1 0.0000000000000000e+00 2.0000000000000000e+00 1.4000000000000000e+01 0.0000000000000000e+00 0 0 0
164 0 1 0.0000000000000000e+00 2.0000000000000000e+00 1.4000000000000000e+01 4.0000000000000000e+00 0 0 0
81 0 1 0.0000000000000000e+00 0.0000000000000000e+00 1.6000000000000000e+01 0.0000000000000000e+00 0 0 0
181 0 1 0.0000000000000000e+00 0.0000000000000000e+00 1.6000000000000000e+01 4.0000000000000000e+00 0 0 0
85 0 1 0.0000000000000000e+00 4.0000000000000000e+00 1.6000000000000000e+01 0.0000000000000000e+00 0 0 0
185 0 1 0.0000000000000000e+00 4.0000000000000000e+00 1.6000000000000000e+01 4.0000000000000000e+00 0 0 0
82 0 1 0.0000000000000000e+00 0.0000000000000000e+00 1.8000000000000000e+01 2.0000000000000000e+00 0 0 0
182 0 1 0.0000000000000000e+00 0.0000000000000000e+00 1.8000000000000000e+01 6.0000000000000000e+00 0 0 0
86 0 1 0.0000000000000000e+00 4.0000000000000000e+00 1.8000000000000000e+01 2.0000000000000000e+00 0 0 0
186 0 1 0.0000000000000000e+00 4.0000000000000000e+00 1.8000000000000000e+01 6.0000000000000000e+00 0 0 0
83 0 1 0.0000000000000000e+00 2.0000000000000000e+00 1.6000000000000000e+01 2.0000000000000000e+00 0 0 0
183 0 1 0.0000000000000000e+00 2.0000000000000000e+00 1.6000000000000000e+01 6.0000000000000000e+00 0 0 0
84 0 1 0.0000000000000000e+00 2.0000000000000000e+00 1.8000000000000000e+01 0.0000000000000000e+00 0 0 0
184 0 1 0.0000000000000000e+00 2.0000000000000000e+00 1.8000000000000000e+01 4.0000000000000000e+00 0 0 0
9 0 1 0.0000000000000000e+00 8.0000000000000000e+00 0.0000000000000000e+00 0.0000000000000000e+00 0 0 0
109 0 1 0.0000000000000000e+00 8.0000000000000000e+00 0.0000000000000000e+00 4.0000000000000000e+00 0 0 0
10 0 1 0.0000000000000000e+00 8.0000000000000000e+00 2.0000000000000000e+00 2.0000000000000000e+00 0 0 0
110 0 1 0.0000000000000000e+00 8.0000000000000000e+00 2.0000000000000000e+00 6.0000000000000000e+00 0 0 0
7 0 1 0.0000000000000000e+00 6.0000000000000000e+00 0.0000000000000000e+00 2.0000000000000000e+00 0 0 0
107 0 1 0.0000000000000000e+00 6.0000000000000000e+00 0.0000000000000000e+00 6.0000000000000000e+00 0 0 0
8 0 1 0.0000000000000000e+00 6.0000000000000000e+00 2.0000000000000000e+00 0.0000000000000000e+00 0 0 0
108 0 1 0.0000000000000000e+00 6.0000000000000000e+00 2.0000000000000000e+00 4.0000000000000000e+00 0 0 0
29 0 1 0.0000000000000000e+00 8.0000000000000000e+00 4.0000000000000000e+00 0.0000000000000000e+00 0 0 0
129 0 1 0.0000000000000000e+00 8.0000000000000000e+00 4.0000000000000000e+00 4.0000000000000000e+00 0 0 0
30 0 1 0.0000000000000000e+00 8.0000000000000000e+00 6.0000000000000000e+00 2.0000000000000000e+00 0 0 0
130 0 1 0.0000000000000000e+00 8.0000000000000000e+00 6.0000000000000000e+00 6.0000000000000000e+00 0 0 0
27 0 1 0.0000000000000000e+00 6.0000000000000000e+00 4.0000000000000000e+00 2.0000000000000000e+00 0 0 0
127 0 1 0.0000000000000000e+00 6.0000000000000000e+00 4.0000000000000000e+00 6.0000000000000000e+00 0 0 0
28 0 1 0.0000000000000000e+00 6.0000000000000000e+00 6.0000000000000000e+00 0.0000000000000000e+00 0 0 0
128 0 1 0.0000000000000000e+00 6.0000000000000000e+00 6.0000000000000000e+00 4.0000000000000000e+00 0 0 0
49 0 1 0.0000000000000000e+00 8.0000000000000000e+00 8.0000000000000000e+00 0.0000000000000000e+00 0 0 0
149 0 1 0.0000000000000000e+00 8.0000000000000000e+00 8.0000000000000000e+00 4.0000000000000000e+00 0 0 0
50 0 1 0.0000000000000000e+00 8.0000000000000000e+00 1.0000000000000000e+01 2.0000000000000000e+00 0 0 0
150 0 1 0.0000000000000000e+00 8.0000000000000000e+00 1.0000000000000000e+01 6.0000000000000000e+00 0 0 0
47 0 1 0.0000000000000000e+00 6.0000000000000000e+00 8.0000000000000000e+00 2.0000000000000000e+00 0 0 0
147 0 1 0.0000000000000000e+00 6.0000000000000000e+00 8.0000000000000000e+00 6.0000000000000000e+00 0 0 0
48 0 1 0.0000000000000000e+00 6.0000000000000000e+00 1.0000000000000000e+01 0.0000000000000000e+00 0 0 0
148 0 1 0.0000000000000000e+00 6.0000000000000000e+00 1.0000000000000000e+01 4.0000000000000000e+00 0 0 0
69 0 1 0.0000000000000000e+00 8.0000000000000000e+00 1.2000000000000000e+01 0.0000000000000000e+00 0 0 0
169 0 1 0.0000000000000000e+00 8.0000000000000000e+00 1.2000000000000000e+01 4.0000000000000000e+00 0 0 0
70 0 1 0.0000000000000000e+00 8.0000000000000000e+00 1.4000000000000000e+01 2.0000000000000000e+00 0 0 0
170 0 1 0.0000000000000000e+00 8.0000000000000000e+00 1.4000000000000000e+01 6.0000000000000000e+00 0 0 0
67 0 1 0.0000000000000000e+00 6.0000000000000000e+00 1.2000000000000000e+01 2.0000000000000000e+00 0 0 0
167 0 1 0.0000000000000000e+00 6.0000000000000000e+00 1.2000000000000000e+01 6.0000000000000000e+00 0 0 0
68 0 1 0.0000000000000000e+00 6.0000000000000000e+00 1.4000000000000000e+01 0.0000000000000000e+00 0 0 0
168 0 1 0.0000000000000000e+00 6.0000000000000000e+00 1.4000000000000000e+01 4.0000000000000000e+00 0 0 0
89 0 1 0.0000000000000000e+00 8.0000000000000000e+00 1.6000000000000000e+01 0.0000000000000000e+00 0 0 0
189 0 1 0.0000000000000000e+00 8.0000000000000000e+00 1.6000000000000000e+01 4.0000000000000000e+00 0 0 0
90 0 1 0.0000000000000000e+00 8.0000000000000000e+00 1.8000000000000000e+01 2.0000000000000000e+00 0 0 0
190 0 1 0.0000000000000000e+00 8.0000000000000000e+00 1.8000000000000000e+01 6.0000000000000000e+00 0 0 0
87 0 1 0.0000000000000000e+00 6.0000000000000000e+00 1.6000000000000000e+01 2.0000000000000000e+00 0 0 0
187 0 1 0.0000000000000000e+00 6.0000000000000000e+00 1.6000000000000000e+01 6.0000000000000000e+00 0 0 0
88 0 1 0.0000000000000000e+00 6.0000000000000000e+00 1.8000000000000000e+01 0.0000000000000000e+00 0 0 0
188 0 1 0.0000000000000000e+00 6.0000000000000000e+00 1.8000000000000000e+01 4.0000000000000000e+00 0 0 0
13 0 1 0.0000000000000000e+00 1.2000000000000000e+01 0.0000000000000000e+00 0.0000000000000000e+00 0 0 0
113 0 1 0.0000000000000000e+00 1.2000000000000000e+01 0.0000000000000000e+00 4.0000000000000000e+00 0 0 0
14 0 1 0.0000000000000000e+00 1.2000000000000000e+01 2.0000000000000000e+00 2.0000000000000000e+00 0 0 0
114 0 1 0.0000000000000000e+00 1.2000000000000000e+01 2.0000000000000000e+00 6.0000000000000000e+00 0 0 0
11 0 1 0.0000000000000000e+00 1.0000000000000000e+01 0.0000000000000000e+00 2.0000000000000000e+00 0 0 0
111 0 1 0.0000000000000000e+00 1.0000000000000000e+01 0.0000000000000000e+00 6.0000000000000000e+00 0 0 0
15 0 1 0.0000000000000000e+00 1.4000000000000000e+01 0.0000000000000000e+00 2.0000000000000000e+00 0 0 0
115 0 1 0.0000000000000000e+00 1.4000000000000000e+01 0.0000000000000000e+00 6.0000000000000000e+00 0 0 0
12 0 1 0.0000000000000000e+00 1.0000000000000000e+01 2.0000000000000000e+00 0.0000000000000000e+00 0 0 0
112 0 1 0.0000000000000000e+00 1.0000000000000000e+01 2.0000000000000000e+00 4.0000000000000000e+00 0 0 0
16 0 1 0.0000000000000000e+00 1.4000000000000000e+01 2.0000000000000000e+00 0.0000000000000000e+00 0 0 0
116 0 1 0.0000000000000000e+00 1.4000000000000000e+01 2.0000000000000000e+00 4.0000000000000000e+00 0 0 0
33 0 1 0.0000000000000000e+00 1.2000000000000000e+01 4.0000000000000000e+00 0.0000000000000000e+00 0 0 0
133 0 1 0.0000000000000000e+00 1.2000000000000000e+01 4.0000000000000000e+00 4.0000000000000000e+00 0 0 0
34 0 1 0.0000000000000000e+00 1.2000000000000000e+01 6.0000000000000000e+00 2.0000000000000000e+00 0 0 0
134 0 1 0.0000000000000000e+00 1.2000000000000000e+01 6.0000000000000000e+00 6.0000000000000000e+00 0 0 0
31 0 1 0.0000000000000000e+00 1.0000000000000000e+01 4.0000000000000000e+00 2.0000000000000000e+00 0 0 0
131 0 1 0.0000000000000000e+00 1.0000000000000000e+01 4.0000000000000000e+00 6.0000000000000000e+00 0 0 0
35 0 1 0.0000000000000000e+00 1.4000000000000000e+01 4.0000000000000000e+00 2.0000000000000000e+00 0 0 0
135 0 1 0.0000000000000000e+00 1.4000000000000000e+01 4.0000000000000000e+00 6.0000000000000000e+00 0 0 0
32 0 1 0.0000000000000000e+00 1.0000000000000000e+01 6.0000000000000000e+00 0.0000000000000000e+00 0 0 0
132 0 1 0.0000000000000000e+00 1.0000000000000000e+01 6.0000000000000000e+00 4.0000000000000000e+00 0 0 0
36 0 1 0.0000000000000000e+00 1.4000000000000000e+01 6.0000000000000000e+00 0.0000000000000000e+00 0 0 0
136 0 1 0.0000000000000000e+00 1.4000000000000000e+01 6.0000000000000000e+00 4.0000000000000000e+00 0 0 0
53 0 1 0.0000000000000000e+00 1.2000000000000000e+01 8.0000000000000000e+00 0.0000000000000000e+00 0 0 0
153 0 1 0.0000000000000000e+00 1.2000000000000000e+01 8.0000000000000000e+00 4.0000000000000000e+00 0 0 0
54 0 1 0.0000000000000000e+00 1.2000000000000000e+01 1.0000000000000000e+01 2.0000000000000000e+00 0 0 0
154 0 1 0.0000000000000000e+00 1.2000000000000000e+01 1.0000000000000000e+01 6.0000000000000000e+00 0 0 0
51 0 1 0.0000000000000000e+00 1.0000000000000000e+01 8.0000000000000000e+00 2.0000000000000000e+00 0 0 0
151 0 1 0.0000000000000000e+00 1.0000000000000000e+01 8.0000000000000000e+00 6.0000000000000000e+00 0 0 0
55 0 1 0.0000000000000000e+00 1.4000000000000000e+01 8.0000000000000000e+00 2.0000000000000000e+00 0 0 0
155 0 1 0.0000000000000000e+00 1.4000000000000000e+01 8.0000000000000000e+00 6.0000000000000000e+00 0 0 0
52 0 1 0.0000000000000000e+00 1.0000000000000000e+01 1.0000000000000000e+01 0.0000000000000000e+00 0 0 0
152 0 1 0.0000000000000000e+00 1.0000000000000000e+01 1.0000000000000000e+01 4.0000000000000000e+00 0 0 0
56 0 1 0.0000000000000000e+00 1.4000000000000000e+01 1.0000000000000000e+01 0.0000000000000000e+00 0 0 0
156 0 1 0.0000000000000000e+00 1.4000000000000000e+01 1.0000000000000000e+01 4.0000000000000000e+00 0 0 0
73 0 1 0.0000000000000000e+00 1.2000000000000000e+01 1.2000000000000000e+01 0.0000000000000000e+00 0 0 0
173 0 1 0.0000000000000000e+00 1.2000000000000000e+01 1.2000000000000000e+01 4.0000000000000000e+00 0 0 0
74 0 1 0.0000000000000000e+00 1.2000000000000000e+01 1.4000000000000000e+01 2.0000000000000000e+00 0 0 0
174 0 1 0.0000000000000000e+00 1.2000000000000000e+01 1.4000000000000000e+01 6.0000000000000000e+00 0 0 0
71 0 1 0.0000000000000000e+00 1.0000000000000000e+01 1.2000000000000000e+01 2.0000000000000000e+00 0 0 0
171 0 1 0.0000000000000000e+00 1.0000000000000000e+01 1.2000000000000000e+01 6.0000000000000000e+00 0 0 0
75 0 1 0.0000000000000000e+00 1.4000000000000000e+01 1.2000000000000000e+01 2.0000000000000000e+00 0 0 0
175 0 1 0.0000000000000000e+00 1.4000000000000000e+01 1.2000000000000000e+01 6.0000000000000000e+00 0 0 0
72 0 1 0.0000000000000000e+00 1.0000000000000000e+01 1.4000000000000000e+01 0.0000000000000000e+00 0 0 0
172 0 1 0.0000000000000000e+00 1.0000000000000000e+01 1.4000000000000000e+01 4.0000000000000000e+00 0 0 0
76 0 1 0.0000000000000000e+00 1.4000000000000000e+01 1.4000000000000000e+01 0.0000000000000000e+00 0 0 0
176 0 1 0.0000000000000000e+00 1.4000000000000000e+01 1.4000000000000000e+01 4.0000000000000000e+00 0 0 0
93 0 1 0.0000000000000000e+00 1.2000000000000000e+01 1.6000000000000000e+01 0.0000000000000000e+00 0 0 0
193 0 1 0.0000000000000000e+00 1.2000000000000000e+01 1.6000000000000000e+01 4.0000000000000000e+00 0 0 0
94 0 1 0.0000000000000000e+00 1.2000000000000000e+01 1.8000000000000000e+01 2.0000000000000000e+00 0 0 0
194 0 1 0.0000000000000000e+00 1.2000000000000000e+01 1.8000000000000000e+01 6.0000000000000000e+00 0 0 0
91 0 1 0.0000000000000000e+00 1.0000000000000000e+01 1.6000000000000000e+01 2.0000000000000000e+00 0 0 0
191 0 1 0.0000000000000000e+00 1.0000000000000000e+01 1.6000000000000000e+01 6.0000000000000000e+00 0 0 0
95 0 1 0.0000000000000000e+00 1.4000000000000000e+01 1.6000000000000000e+01 2.0000000000000000e+00 0 0 0
195 0 1 0.0000000000000000e+00 1.4000000000000000e+01 1.6000000000000000e+01 6.0000000000000000e+00 0 0 0
92 0 1 0.0000000000000000e+00 1.0000000000000000e+01 1.8000000000000000e+01 0.0000000000000000e+00 0 0 0
192 0 1 0.0000000000000000e+00 1.0000000000000000e+01 1.8000000000000000e+01 4.0000000000000000e+00 0 0 0
96 0 1 0.0000000000000000e+00 1.4000000000000000e+01 1.8000000000000000e+01 0.0000000000000000e+00 0 0 0
196 0 1 0.0000000000000000e+00 1.4000000000000000e+01 1.8000000000000000e+01 4.0000000000000000e+00 0 0 0
17 0 1 0.0000000000000000e+00 1.6000000000000000e+01 0.0000000000000000e+00 0.0000000000000000e+00 0 0 0
117 0 1 0.0000000000000000e+00 1.6000000000000000e+01 0.0000000000000000e+00 4.0000000000000000e+00 0 0 0
18 0 1 0.0000000000000000e+00 1.6000000000000000e+01 2.0000000000000000e+00 2.0000000000000000e+00 0 0 0
118 0 1 0.0000000000000000e+00 1.6000000000000000e+01 2.0000000000000000e+00 6.0000000000000000e+00 0 0 0
19 0 1 0.0000000000000000e+00 1.8000000000000000e+01 0.0000000000000000e+00 2.0000000000000000e+00 0 0 0
119 0 1 0.0000000000000000e+00 1.8000000000000000e+01 0.0000000000000000e+00 6.0000000000000000e+00 0 0 0
20 0 1 0.0000000000000000e+00 1.8000000000000000e+01 2.0000000000000000e+00 0.0000000000000000e+00 0 0 0
120 0 1 0.0000000000000000e+00 1.8000000000000000e+01 2.0000000000000000e+00 4.0000000000000000e+00 0 0 0
37 0 1 0.0000000000000000e+00 1.6000000000000000e+01 4.0000000000000000e+00 0.0000000000000000e+00 0 0 0
137 0 1 0.0000000000000000e+00 1.6000000000000000e+01 4.0000000000000000e+00 4.0000000000000000e+00 0 0 0
38 0 1 0.0000000000000000e+00 1.6000000000000000e+01 6.0000000000000000e+00 2.0000000000000000e+00 0 0 0
138 0 1 0.0000000000000000e+00 1.6000000000000000e+01 6.0000000000000000e+00 6.0000000000000000e+00 0 0 0
39 0 1 0.0000000000000000e+00 1.8000000000000000e+01 4.0000000000000000e+00 2.0000000000000000e+00 0 0 0
139 0 1 0.0000000000000000e+00 1.8000000000000000e+01 4.0000000000000000e+00 6.0000000000000000e+00 0 0 0
40 0 1 0.0000000000000000e+00 1.8000000000000000e+01 6.0000000000000000e+00 0.0000000000000000e+00 0 0 0
140 0 1 0.0000000000000000e+00 1.8000000000000000e+01 6.0000000000000000e+00 4.0000000000000000e+00 0 0 0
57 0 1 0.0000000000000000e+00 1.6000000000000000e+01 8.0000000000000000e+00 0.0000000000000000e+00 0 0 0
157 0 1 0.0000000000000000e+00 1.6000000000000000e+01 8.0000000000000000e+00 4.0000000000000000e+00 0 0 0
58 0 1 0.0000000000000000e+00 1.6000000000000000e+01 1.0000000000000000e+01 2.0000000000000000e+00 0 0 0
158 0 1 0.0000000000000000e+00 1.6000000000000000e+01 1.0000000000000000e+01 6.0000000000000000e+00 0 0 0
59 0 1 0.0000000000000000e+00 1.8000000000000000e+01 8.0000000000000000e+00 2.0000000000000000e+00 0 0 0
159 0 1 0.0000000000000000e+00 1.8000000000000000e+01 8.0000000000000000e+00 6.0000000000000000e+00 0 0 0
60 0 1 0.0000000000000000e+00 1.8000000000000000e+01 1.0000000000000000e+01 0.0000000000000000e+00 0 0 0
160 0 1 0.0000000000000000e+00 1.8000000000000000e+01 1.0000000000000000e+01 4.0000000000000000e+00 0 0 0
77 0 1 0.0000000000000000e+00 1.6000000000000000e+01 1.2000000000000000e+01 0.0000000000000000e+00 0 0 0
177 0 1 0.0000000000000000e+00 1.6000000000000000e+01 1.2000000000000000e+01 4.0000000000000000e+00 0 0 0
78 0 1 0.0000000000000000e+00 1.6000000000000000e+01 1.4000000000000000e+01 2.0000000000000000e+00 0 0 0
178 0 1 0.0000000000000000e+00 1.6000000000000000e+01 1.4000000000000000e+01 6.0000000000000000e+00 0 0 0
79 0 1 0.0000000000000000e+00 1.8000000000000000e+01 1.2000000000000000e+01 2.0000000000000000e+00 0 0 0
179 0 1 0.0000000000000000e+00 1.8000000000000000e+01 1.2000000000000000e+01 6.0000000000000000e+00 0 0 0
80 0 1 0.0000000000000000e+00 1.8000000000000000e+01 1.4000000000000000e+01 0.0000000000000000e+00 0 0 0
180 0 1 0.0000000000000000e+00 1.8000000000000000e+01 1.4000000000000000e+01 4.0000000000000000e+00 0 0 0
97 0 1 0.0000000000000000e+00 1.6000000000000000e+01 1.6000000000000000e+01 0.0000000000000000e+00 0 0 0
197 0 1 0.0000000000000000e+00 1.6000000000000000e+01 1.6000000000000000e+01 4.0000000000000000e+00 0 0 0
98 0 1 0.0000000000000000e+00 1.6000000000000000e+01 1.8000000000000000e+01 2.0000000000000000e+00 0 0 0
198 0 1 0.0000000000000000e+00 1.6000000000000000e+01 1.8000000000000000e+01 6.0000000000000000e+00 0 0 0
99 0 1 0.0000000000000000e+00 1.8000000000000000e+01 1.6000000000000000e+01 2.0000000000000000e+00 0 0 0
199 0 1 0.0000000000000000e+00 1.8000000000000000e+01 1.6000000000000000e+01 6.0000000000000000e+00 0 0 0
100 0 1 0.0000000000000000e+00 1.8000000000000000e+01 1.8000000000000000e+01 0.0000000000000000e+00 0 0 0
200 0 1 0.0000000000000000e+00 1.8000000000000000e+01 1.8000000000000000e+01 4.0000000000000000e+00 0 0 0

Velocities

1 0.0000000000000000e+00 0.0000000000000000e+00 0.0000000000000000e+00
101 0.0000000000000000e+00 0.0000000000000000e+00 0.0000000000000000e+00
5 0.0000000000000000e+00 0.0000000000000000e+00 0.0000000000000000e+00
105 0.0000000000000000e+00 0.0000000000000000e+00 0.0000000000000000e+00
2 0.0000000000000000e+00 0.0000000000000000e+00 0.0000000000000000e+00
102 0.0000000000000000e+00 0.0000000000000000e+00 0.0000000000000000e+00
6 0.0000000000000000e+00 0.0000000000000000e+00 0.0000000000000000e+00
106 0.0000000000000000e+00 0.0000000000000000e+00 0.0000000000000000e+00
3 0.0000000000000000e+00 0.0000000000000000e+00 0.0000000000000000e+00
103 0.0000000000000000e+00 0.0000000000000000e+00 0.0000000000000000e+00
4 0.0000000000000000e+00 0.0000000000000000e+00 0.0000000000000000e+00
104 0.0000000000000000e+00 0.0000000000000000e+00 0.0000000000000000e+00
21 0.0000000000000000e+00 0.0000000000000000e+00 0.0000000000000000e+00
121 0.0000000000000000e+00 0.0000000000000000e+00 0.0000000000000000e+00
25 0.0000000000000000e+00 0.0000000000000000e+00 0.0000000000000000e+00
125 0.0000000000000000e+00 0.0000000000000000e+00 0.0000000000000000e+00
22 0.0000000000000000e+00 0.0000000000000000e+00 0.0000000000000000e+00
122 0.0000000000000000e+00 0.0000000000000000e+00 0.0000000000000000e+00
26 0.0000000000000000e+00 0.0000000000000000e+00 0.0000000000000000e+00
126 0.0000000000000000e+00 0.0000000000000000e+00 0.0000000000000000e+00
23 0.0000000000000000e+00 0.0000000000000000e+00 0.0000000000000000e+00
123 0.0000000000000000e+00 0.0000000000000000e+00 0.0000000000000000e+00
24 0.0000000000000000e+00 0.0000000000000000e+00 0.0000000000000000e+00
124 0.0000000000000000e+00 0.0000000000000000e+00 0.0000000000000000e+00
41 0.0000000000000000e+00 0.0000000000000000e+00 0.0000000000000000e+00
141 0.0000000000000000e+00 0.0000000000000000e+00 0.0000000000000000e+00
45 0.0000000000000000e+00 0.0000000000000000e+00 0.0000000000000000e+00
145 0.0000000000000000e+00 0.0000000000000000e+00 0.0000000000000000e+00
42 0.0000000000000000e+00 0.0000000000000000e+00 0.0000000000000000e+00
142 0.0000000000000000e+00 0.0000000000000000e+00 0.0000000000000000e+00
46 0.0000000000000000e+00 0.0000000000000000e+00 0.0000000000000000e+00
146 0.0000000000000000e+00 0.0000000000000000e+00 0.0000000000000000e+00
43 0.0000000000000000e+00 0.0000000000000000e+00 0.0000000000000000e+00
143 0.0000000000000000e+00 0.0000000000000000e+00 0.0000000000000000e+00
44 0.0000000000000000e+00 0.0000000000000000e+00 0.0000000000000000e+00
144 0.0000000000000000e+00 0.0000000000000000e+00 0.0000000000000000e+00
61 0.0000000000000000e+00 0.0000000000000000e+00 0.0000000000000000e+00
161 0.0000000000000000e+00 0.0000000000000000e+00 0.0000000000000000e+00
65 0.0000000000000000e+00 0.0000000000000000e+00 0.0000000000000000e+00
165 0.0000000000000000e+00 0.0000000000000000e+00 0.0000000000000000e+00
62 0.0000000000000000e+00 0.0000000000000000e+00 0.0000000000000000e+00
162 0.0000000000000000e+00 0.0000000000000000e+00 0.0000000000000000e+00
66 0.0000000000000000e+00 0.0000000000000000e+00 0.0000000000000000e+00
166 0.0000000000000000e+00 0.0000000000000000e+00 0.0000000000000000e+00
63 0.0000000000000000e+00 0.0000000000000000e+00 0.0000000000000000e+00
163 0.0000000000000000e+00 0.0000000000000000e+00 0.0000000000000000e+00
64 0.0000000000000000e+00 0.0000000000000000e+00 0.0000000000000000e+00
164 0.0000000000000000e+00 0.0000000000000000e+00 0.0000000000000000e+00
81 0.0000000000000000e+00 0.0000000000000000e+00 0.0000000000000000e+00
181 0.0000000000000000e+00 0.0000000000000000e+00 0.0000000000000000e+00
85 0.0000000000000000e+00 0.0000000000000000e+00 0.0000000000000000e+00
185 0.0000000000000000e+00 0.0000000000000000e+00 0.0000000000000000e+00
82 0.0000000000000000e+00 0.0000000000000000e+00 0.0000000000000000e+00
182 0.0000000000000000e+00 0.0000000000000000e+00 0.0000000000000000e+00
86 0.0000000000000000e+00 0.0000000000000000e+00 0.0000000000000000e+00
186 0.0000000000000000e+00 0.0000000000000000e+00 0.0000000000000000e+00
83 0.0000000000000000e+00 0.0000000000000000e+00 0.0000000000000000e+00
183 0.0000000000000000e+00 0.0000000000000000e+00 0.0000000000000000e+00
84 0.0000000000000000e+00 0.0000000000000000e+00 0.0000000000000000e+00
184 0.0000000000000000e+00 0.0000000000000000e+00 0.0000000000000000e+00
9 0.0000000000000000e+00 0.0000000000000000e+00 0.0000000000000000e+00
109 0.0000000000000000e+00 0.0000000000000000e+00 0.0000000000000000e+00
10 0.0000000000000000e+00 0.0000000000000000e+00 0.0000000000000000e+00
110 0.0000000000000000e+00 0.0000000000000000e+00 0.0000000000000000e+00
7 0.0000000000000000e+00 0.0000000000000000e+00 0.0000000000000000e+00
107 0.0000000000000000e+00 0.0000000000000000e+00 0.0000000000000000e+00
8 0.0000000000000000e+00 0.0000000000000000e+00 0.0000000000000000e+00
108 0.0000000000000000e+00 0.0000000000000000e+00 0.0000000000000000e+00
29 0.0000000000000000e+00 0.0000000000000000e+00 0.0000000000000000e+00
129 0.0000000000000000e+00 0.0000000000000000e+00 0.0000000000000000e+00
30 0.0000000000000000e+00 0.0000000000000000e+00 0.0000000000000000e+00
130 0.0000000000000000e+00 0.0000000000000000e+00 0.0000000000000000e+00
27 0.0000000000000000e+00 0.0000000000000000e+00 0.0000000000000000e+00
127 0.0000000000000000e+00 0.0000000000000000e+00 0.0000000000000000e+00
28 0.0000000000000000e+00 0.0000000000000000e+00 0.0000000000000000e+00
128 0.0000000000000000e+00 0.0000000000000000e+00 0.0000000000000000e+00
49 0.0000000000000000e+00 0.0000000000000000e+00 0.0000000000000000e+00
149 0.0000000000000000e+00 0.0000000000000000e+00 0.0000000000000000e+00
50 0.0000000000000000e+00 0.0000000000000000e+00 0.0000000000000000e+00
150 0.0000000000000000e+00 0.0000000000000000e+00 0.0000000000000000e+00
47 0.0000000000000000e+00 0.0000000000000000e+00 0.0000000000000000e+00
147 0.0000000000000000e+00 0.0000000000000000e+00 0.0000000000000000e+00
48 0.0000000000000000e+00 0.0000000000000000e+00 0.0000000000000000e+00
148 0.0000000000000000e+00 0.0000000000000000e+00 0.0000000000000000e+00
69 0.0000000000000000e+00 0.0000000000000000e+00 0.0000000000000000e+00
169 0.0000000000000000e+00 0.0000000000000000e+00 0.0000000000000000e+00
70 0.0000000000000000e+00 0.0000000000000000e+00 0.0000000000000000e+00
170 0.0000000000000000e+00 0.0000000000000000e+00 0.0000000000000000e+00
67 0.0000000000000000e+00 0.0000000000000000e+00 0.0000000000000000e+00
167 0.0000000000000000e+00 0.0000000000000000e+00 0.0000000000000000e+00
68 0.0000000000000000e+00 0.0000000000000000e+00 0.0000000000000000e+00
168 0.0000000000000000e+00 0.0000000000000000e+00 0.0000000000000000e+00
89 0.0000000000000000e+00 0.0000000000000000e+00 0.0000000000000000e+00
189 0.0000000000000000e+00 0.0000000000000000e+00 0.0000000000000000e+00
90 0.0000000000000000e+00 0.0000000000000000e+00 0.0000000000000000e+00
190 0.0000000000000000e+00 0.0000000000000000e+00 0.0000000000000000e+00
87 0.0000000000000000e+00 0.0000000000000000e+00 0.0000000000000000e+00
187 0.0000000000000000e+00 0.0000000000000000e+00 0.0000000000000000e+00
88 0.0000000000000000e+00 0.0000000000000000e+00 0.0000000000000000e+00
188 0.0000000000000000e+00 0.0000000000000000e+00 0.0000000000000000e+00
13 0.0000000000000000e+00 0.0000000000000000e+00 0.0000000000000000e+00
113 0.0000000000000000e+00 0.0000000000000000e+00 0.0000000000000000e+00
14 0.0000000000000000e+00 0.0000000000000000e+00 0.0000000000000000e+00
114 0.0000000000000000e+00 0.0000000000000000e+00 0.0000000000000000e+00
11 0.0000000000000000e+00 0.0000000000000000e+00 0.0000000000000000e+00
111 0.0000000000000000e+00 0.0000000000000000e+00 0.0000000000000000e+00
15 0.0000000000000000e+00 0.0000000000000000e+00 0.0000000000000000e+00
115 0.0000000000000000e+00 0.0000000000000000e+00 0.0000000000000000e+00
12 0.0000000000000000e+00 0.0000000000000000e+00 0.0000000000000000e+00
112 0.0000000000000000e+00 0.0000000000000000e+00 0.0000000000000000e+00
16 0.0000000000000000e+00 0.0000000000000000e+00 0.0000000000000000e+00
116 0.0000000000000000e+00 0.0000000000000000e+00 0.0000000000000000e+00
33 0.0000000000000000e+00 0.0000000000000000e+00 0.0000000000000000e+00
133 0.0000000000000000e+00 0.0000000000000000e+00 0.0000000000000000e+00
34 0.0000000000000000e+00 0.0000000000000000e+00 0.0000000000000000e+00
134 0.0000000000000000e+00 0.0000000000000000e+00 0.0000000000000000e+00
31 0.0000000000000000e+00 0.0000000000000000e+00 0.0000000000000000e+00
131 0.0000000000000000e+00 0.0000000000000000e+00 0.0000000000000000e+00