LAMMPS data file via write_data, version 7 Aug 2019, timestep = 0

100 atoms
3 atom types

0.0000000000000000e+00 2.0000000000000000e+01 xlo xhi
0.0000000000000000e+00 2.0000000000000000e+01 ylo yhi
0.0000000000000000e+00 4.0000000000000000e+00 zlo zhi

Masses

1 196
2 22
3 35

Atoms # full

1 0 1 0.0000000000000000e+00 0.0000000000000000e+00 0.0000000000000000e+00 0.0000000000000000e+00 0 0 0
5 0 1 0.0000000000000000e+00 4.0000000000000000e+00 0.0000000000000000e+00 0.0000000000000000e+00 0 0 0
2 0 1 0.0000000000000000e+00 0.0000000000000000e+00 2.0000000000000000e+00 2.0000000000000000e+00 0 0 0
6 0 1 0.0000000000000000e+00 4.0000000000000000e+00 2.0000000000000000e+00 2.0000000000000000e+00 0 0 0
3 0 1 0.0000000000000000e+00 2.0000000000000000e+00 0.0000000000000000e+00 2.0000000000000000e+00 0 0 0
4 0 1 0.0000000000000000e+00 2.0000000000000000e+00 2.0000000000000000e+00 0.0000000000000000e+00 0 0 0
21 0 1 0.0000000000000000e+00 0.0000000000000000e+00 4.0000000000000000e+00 0.0000000000000000e+00 0 0 0
25 0 1 0.0000000000000000e+00 4.0000000000000000e+00 4.0000000000000000e+00 0.0000000000000000e+00 0 0 0
22 0 1 0.0000000000000000e+00 0.0000000000000000e+00 6.0000000000000000e+00 2.0000000000000000e+00 0 0 0
26 0 1 0.0000000000000000e+00 4.0000000000000000e+00 6.0000000000000000e+00 2.0000000000000000e+00 0 0 0
23 0 1 0.0000000000000000e+00 2.0000000000000000e+00 4.0000000000000000e+00 2.0000000000000000e+00 0 0 0
24 0 1 0.0000000000000000e+00 2.0000000000000000e+00 6.0000000000000000e+00 0.0000000000000000e+00 0 0 0
41 0 1 0.0000000000000000e+00 0.0000000000000000e+00 8.0000000000000000e+00 0.0000000000000000e+00 0 0 0
45 0 1 0.0000000000000000e+00 4.0000000000000000e+00 8.0000000000000000e+00 0.0000000000000000e+00 0 0 0
42 0 1 0.0000000000000000e+00 0.0000000000000000e+00 1.0000000000000000e+01 2.0000000000000000e+00 0 0 0
46 0 1 0.0000000000000000e+00 4.0000000000000000e+00 1.0000000000000000e+01 2.0000000000000000e+00 0 0 0
43 0 1 0.0000000000000000e+00 2.0000000000000000e+00 8.0000000000000000e+00 2.0000000000000000e+00 0 0 0
44 0 1 0.0000000000000000e+00 2.0000000000000000e+00 1.0000000000000000e+01 0.0000000000000000e+00 0 0 0
61 0 1 0.0000000000000000e+00 0.0000000000000000e+00 1.2000000000000000e+01 0.0000000000000000e+00 0 0 0
65 0 1 0.0000000000000000e+00 4.0000000000000000e+00 1.2000000000000000e+01 0.0000000000000000e+00 0 0 0
62 0 1 0.0000000000000000e+00 0.0000000000000000e+00 1.4000000000000000e+01 2.0000000000000000e+00 0 0 0
66 0 1 0.0000000000000000e+00 4.0000000000000000e+00 1.4000000000000000e+01 2.0000000000000000e+00 0 0 0
63 0 1 0.0000000000000000e+00 2.0000000000000000e+00 1.2000000000000000e+01 2.0000000000000000e+00 0 0 0
64 0 1 0.0000000000000000e+00 2.0000000000000000e+00 1.4000000000000000e+01 0.0000000000000000e+00 0 0 0
81 0 1 0.0000000000000000e+00 0.0000000000000000e+00 1.6000000000000000e+01 0.0000000000000000e+00 0 0 0
85 0 1 0.0000000000000000e+00 4.0000000000000000e+00 1.6000000000000000e+01 0.0000000000000000e+00 0 0 0
82 0 1 0.0000000000000000e+00 0.0000000000000000e+00 1.8000000000000000e+01 2.0000000000000000e+00 0 0 0
86 0 1 0.0000000000000000e+00 4.0000000000000000e+00 1.8000000000000000e+01 2.0000000000000000e+00 0 0 0
83 0 1 0.0000000000000000e+00 2.0000000000000000e+00 1.6000000000000000e+01 2.0000000000000000e+00 0 0 0
84 0 1 0.0000000000000000e+00 2.0000000000000000e+00 1.8000000000000000e+01 0.0000000000000000e+00 0 0 0
9 0 1 0.0000000000000000e+00 8.0000000000000000e+00 0.0000000000000000e+00 0.0000000000000000e+00 0 0 0
10 0 1 0.0000000000000000e+00 8.0000000000000000e+00 2.0000000000000000e+00 2.0000000000000000e+00 0 0 0
7 0 1 0.0000000000000000e+00 6.0000000000000000e+00 0.0000000000000000e+00 2.0000000000000000e+00 0 0 0
8 0 1 0.0000000000000000e+00 6.0000000000000000e+00 2.0000000000000000e+00 0.0000000000000000e+00 0 0 0
29 0 1 0.0000000000000000e+00 8.0000000000000000e+00 4.0000000000000000e+00 0.0000000000000000e+00 0 0 0
30 0 1 0.0000000000000000e+00 8.0000000000000000e+00 6.0000000000000000e+00 2.0000000000000000e+00 0 0 0
27 0 1 0.0000000000000000e+00 6.0000000000000000e+00 4.0000000000000000e+00 2.0000000000000000e+00 0 0 0
28 0 1 0.0000000000000000e+00 6.0000000000000000e+00 6.0000000000000000e+00 0.0000000000000000e+00 0 0 0
49 0 1 0.0000000000000000e+00 8.0000000000000000e+00 8.0000000000000000e+00 0.0000000000000000e+00 0 0 0
50 0 1 0.0000000000000000e+00 8.0000000000000000e+00 1.0000000000000000e+01 2.0000000000000000e+00 0 0 0
47 0 1 0.0000000000000000e+00 6.0000000000000000e+00 8.0000000000000000e+00 2.0000000000000000e+00 0 0 0
48 0 1 0.0000000000000000e+00 6.0000000000000000e+00 1.0000000000000000e+01 0.0000000000000000e+00 0 0 0
69 0 1 0.0000000000000000e+00 8.0000000000000000e+00 1.2000000000000000e+01 0.0000000000000000e+00 0 0 0
70 0 1 0.0000000000000000e+00 8.0000000000000000e+00 1.4000000000000000e+01 2.0000000000000000e+00 0 0 0
67 0 1 0.0000000000000000e+00 6.0000000000000000e+00 1.2000000000000000e+01 2.0000000000000000e+00 0 0 0
68 0 1 0.0000000000000000e+00 6.0000000000000000e+00 1.4000000000000000e+01 0.0000000000000000e+00 0 0 0
89 0 1 0.0000000000000000e+00 8.0000000000000000e+00 1.6000000000000000e+01 0.0000000000000000e+00 0 0 0
90 0 1 0.0000000000000000e+00 8.0000000000000000e+00 1.8000000000000000e+01 2.0000000000000000e+00 0 0 0
87 0 1 0.0000000000000000e+00 6.0000000000000000e+00 1.6000000000000000e+01 2.0000000000000000e+00 0 0 0
88 0 1 0.0000000000000000e+00 6.0000000000000000e+00 1.8000000000000000e+01 0.0000000000000000e+00 0 0 0
13 0 1 0.0000000000000000e+00 1.2000000000000000e+01 0.0000000000000000e+00 0.0000000000000000e+00 0 0 0
14 0 1 0.0000000000000000e+00 1.2000000000000000e+01 2.0000000000000000e+00 2.0000000000000000e+00 0 0 0
11 0 1 0.0000000000000000e+00 1.0000000000000000e+01 0.0000000000000000e+00 2.0000000000000000e+00 0 0 0
15 0 1 0.0000000000000000e+00 1.4000000000000000e+01 0.0000000000000000e+00 2.0000000000000000e+00 0 0 0
12 0 1 0.0000000000000000e+00 1.0000000000000000e+01 2.0000000000000000e+00 0.0000000000000000e+00 0 0 0
16 0 1 0.0000000000000000e+00 1.4000000000000000e+01 2.0000000000000000e+00 0.0000000000000000e+00 0 0 0
33 0 1 0.0000000000000000e+00 1.2000000000000000e+01 4.0000000000000000e+00 0.0000000000000000e+00 0 0 0
34 0 1 0.0000000000000000e+00 1.2000000000000000e+01 6.0000000000000000e+00 2.0000000000000000e+00 0 0 0
31 0 1 0.0000000000000000e+00 1.0000000000000000e+01 4.0000000000000000e+00 2.0000000000000000e+00 0 0 0
35 0 1 0.0000000000000000e+00 1.4000000000000000e+01 4.0000000000000000e+00 2.0000000000000000e+00 0 0 0
32 0 1 0.0000000000000000e+00 1.0000000000000000e+01 6.0000000000000000e+00 0.0000000000000000e+00 0 0 0
36 0 1 0.0000000000000000e+00 1.4000000000000000e+01 6.0000000000000000e+00 0.0000000000000000e+00 0 0 0
53 0 1 0.0000000000000000e+00 1.2000000000000000e+01 8.0000000000000000e+00 0.0000000000000000e+00 0 0 0
54 0 1 0.0000000000000000e+00 1.2000000000000000e+01 1.0000000000000000e+01 2.0000000000000000e+00 0 0 0
51 0 1 0.0000000000000000e+00 1.0000000000000000e+01 8.0000000000000000e+00 2.0000000000000000e+00 0 0 0
55 0 1 0.0000000000000000e+00 1.4000000000000000e+01 8.0000000000000000e+00 2.0000000000000000e+00 0 0 0
52 0 1 0.0000000000000000e+00 1.0000000000000000e+01 1.0000000000000000e+01 0.0000000000000000e+00 0 0 0
56 0 1 0.0000000000000000e+00 1.4000000000000000e+01 1.0000000000000000e+01 0.0000000000000000e+00 0 0 0
73 0 1 0.0000000000000000e+00 1.2000000000000000e+01 1.2000000000000000e+01 0.0000000000000000e+00 0 0 0
74 0 1 0.0000000000000000e+00 1.2000000000000000e+01 1.4000000000000000e+01 2.0000000000000000e+00 0 0 0
71 0 1 0.0000000000000000e+00 1.0000000000000000e+01 1.2000000000000000e+01 2.0000000000000000e+00 0 0 0
75 0 1 0.0000000000000000e+00 1.4000000000000000e+01 1.2000000000000000e+01 2.0000000000000000e+00 0 0 0
72 0 1 0.0000000000000000e+00 1.0000000000000000e+01 1.4000000000000000e+01 0.0000000000000000e+00 0 0 0
76 0 1 0.0000000000000000e+00 1.4000000000000000e+01 1.4000000000000000e+01 0.0000000000000000e+00 0 0 0
93 0 1 0.0000000000000000e+00 1.2000000000000000e+01 1.6000000000000000e+01 0.0000000000000000e+00 0 0 0
94 0 1 0.0000000000000000e+00 1.2000000000000000e+01 1.8000000000000000e+01 2.0000000000000000e+00 0 0 0
91 0 1 0.0000000000000000e+00 1.0000000000000000e+01 1.6000000000000000e+01 2.0000000000000000e+00 0 0 0
95 0 1 0.0000000000000000e+00 1.4000000000000000e+01 1.6000000000000000e+01 2.0000000000000000e+00 0 0 0
92 0 1 0.0000000000000000e+00 1.0000000000000000e+01 1.8000000000000000e+01 0.0000000000000000e+00 0 0 0
96 0 1 0.0000000000000000e+00 1.4000000000000000e+01 1.8000000000000000e+01 0.0000000000000000e+00 0 0 0
17 0 1 0.0000000000000000e+00 1.6000000000000000e+01 0.0000000000000000e+00 0.0000000000000000e+00 0 0 0
18 0 1 0.0000000000000000e+00 1.6000000000000000e+01 2.0000000000000000e+00 2.0000000000000000e+00 0 0 0
19 0 1 0.0000000000000000e+00 1.8000000000000000e+01 0.0000000000000000e+00 2.0000000000000000e+00 0 0 0
20 0 1 0.0000000000000000e+00 1.8000000000000000e+01 2.0000000000000000e+00 0.0000000000000000e+00 0 0 0
37 0 1 0.0000000000000000e+00 1.6000000000000000e+01 4.0000000000000000e+00 0.0000000000000000e+00 0 0 0
38 0 1 0.0000000000000000e+00 1.6000000000000000e+01 6.0000000000000000e+00 2.0000000000000000e+00 0 0 0
39 0 1 0.0000000000000000e+00 1.8000000000000000e+01 4.0000000000000000e+00 2.0000000000000000e+00 0 0 0
40 0 1 0.0000000000000000e+00 1.8000000000000000e+01 6.0000000000000000e+00 0.0000000000000000e+00 0 0 0
57 0 1 0.0000000000000000e+00 1.6000000000000000e+01 8.0000000000000000e+00 0.0000000000000000e+00 0 0 0
58 0 1 0.0000000000000000e+00 1.6000000000000000e+01 1.0000000000000000e+01 2.0000000000000000e+00 0 0 0
59 0 1 0.0000000000000000e+00 1.8000000000000000e+01 8.0000000000000000e+00 2.0000000000000000e+00 0 0 0
60 0 1 0.0000000000000000e+00 1.8000000000000000e+01 1.0000000000000000e+01 0.0000000000000000e+00 0 0 0
77 0 1 0.0000000000000000e+00 1.6000000000000000e+01 1.2000000000000000e+01 0.0000000000000000e+00 0 0 0
78 0 1 0.0000000000000000e+00 1.6000000000000000e+01 1.4000000000000000e+01 2.0000000000000000e+00 0 0 0
79 0 1 0.0000000000000000e+00 1.8000000000000000e+01 1.2000000000000000e+01 2.0000000000000000e+00 0 0 0
80 0 1 0.0000000000000000e+00 1.8000000000000000e+01 1.4000000000000000e+01 0.0000000000000000e+00 0 0 0
97 0 1 0.0000000000000000e+00 1.6000000000000000e+01 1.6000000000000000e+01 0.0000000000000000e+00 0 0 0
98 0 1 0.0000000000000000e+00 1.6000000000000000e+01 1.8000000000000000e+01 2.0000000000000000e+00 0 0 0
99 0 1 0.0000000000000000e+00 1.8000000000000000e+01 1.6000000000000000e+01 2.0000000000000000e+00 0 0 0
100 0 1 0.0000000000000000e+00 1.8000000000000000e+01 1.8000000000000000e+01 0.0000000000000000e+00 0 0 0

Velocities

1 0.0000000000000000e+00 0.0000000000000000e+00 0.0000000000000000e+00
5 0.0000000000000000e+00 0.0000000000000000e+00 0.0000000000000000e+00
2 0.0000000000000000e+00 0.0000000000000000e+00 0.0000000000000000e+00
6 0.0000000000000000e+00 0.0000000000000000e+00 0.0000000000000000e+00
3 0.0000000000000000e+00 0.0000000000000000e+00 0.0000000000000000e+00
4 0.0000000000000000e+00 0.0000000000000000e+00 0.0000000000000000e+00
21 0.0000000000000000e+00 0.0000000000000000e+00 0.0000000000000000e+00
25 0.0000000000000000e+00 0.0000000000000000e+00 0.0000000000000000e+00
22 0.0000000000000000e+00 0.0000000000000000e+00 0.0000000000000000e+00
26 0.0000000000000000e+00 0.0000000000000000e+00 0.0000000000000000e+00
23 0.0000000000000000e+00 0.0000000000000000e+00 0.0000000000000000e+00
24 0.0000000000000000e+00 0.0000000000000000e+00 0.0000000000000000e+00
41 0.0000000000000000e+00 0.0000000000000000e+00 0.0000000000000000e+00
45 0.0000000000000000e+00 0.0000000000000000e+00 0.0000000000000000e+00
42 0.0000000000000000e+00 0.0000000000000000e+00 0.0000000000000000e+00
46 0.0000000000000000e+00 0.0000000000000000e+00 0.0000000000000000e+00
43 0.0000000000000000e+00 0.0000000000000000e+00 0.0000000000000000e+00
44 0.0000000000000000e+00 0.0000000000000000e+00 0.0000000000000000e+00
61 0.0000000000000000e+00 0.0000000000000000e+00 0.0000000000000000e+00
65 0.0000000000000000e+00 0.0000000000000000e+00 0.0000000000000000e+00
62 0.0000000000000000e+00 0.0000000000000000e+00 0.0000000000000000e+00
66 0.0000000000000000e+00 0.0000000000000000e+00 0.0000000000000000e+00
63 0.0000000000000000e+00 0.0000000000000000e+00 0.0000000000000000e+00
64 0.0000000000000000e+00 0.0000000000000000e+00 0.0000000000000000e+00
81 0.0000000000000000e+00 0.0000000000000000e+00 0.0000000000000000e+00
85 0.0000000000000000e+00 0.0000000000000000e+00 0.0000000000000000e+00
82 0.0000000000000000e+00 0.0000000000000000e+00 0.0000000000000000e+00
86 0.0000000000000000e+00 0.0000000000000000e+00 0.0000000000000000e+00
83 0.0000000000000000e+00 0.0000000000000000e+00 0.0000000000000000e+00
84 0.0000000000000000e+00 0.0000000000000000e+00 0.0000000000000000e+00
9 0.0000000000000000e+00 0.0000000000000000e+00 0.0000000000000000e+00
10 0.0000000000000000e+00 0.0000000000000000e+00 0.0000000000000000e+00
7 0.0000000000000000e+00 0.0000000000000000e+00 0.0000000000000000e+00
8 0.0000000000000000e+00 0.0000000000000000e+00 0.0000000000000000e+00
29 0.0000000000000000e+00 0.0000000000000000e+00 0.0000000000000000e+00
30 0.0000000000000000e+00 0.0000000000000000e+00 0.0000000000000000e+00
27 0.0000000000000000e+00 0.0000000000000000e+00 0.0000000000000000e+00
28 0.0000000000000000e+00 0.0000000000000000e+00 0.0000000000000000e+00
49 0.0000000000000000e+00 0.0000000000000000e+00 0.0000000000000000e+00
50 0.0000000000000000e+00 0.0000000000000000e+00 0.0000000000000000e+00
47 0.0000000000000000e+00 0.0000000000000000e+00 0.0000000000000000e+00
48 0.0000000000000000e+00 0.0000000000000000e+00 0.0000000000000000e+00
69 0.0000000000000000e+00 0.0000000000000000e+00 0.0000000000000000e+00
70 0.0000000000000000e+00 0.0000000000000000e+00 0.0000000000000000e+00
67 0.0000000000000000e+00 0.0000000000000000e+00 0.0000000000000000e+00
68 0.0000000000000000e+00 0.0000000000000000e+00 0.0000000000000000e+00
89 0.0000000000000000e+00 0.0000000000000000e+00 0.0000000000000000e+00
90 0.0000000000000000e+00 0.0000000000000000e+00 0.0000000000000000e+00
87 0.0000000000000000e+00 0.0000000000000000e+00 0.0000000000000000e+00
88 0.0000000000000000e+00 0.0000000000000000e+00 0.0000000000000000e+00
13 0.0000000000000000e+00 0.0000000000000000e+00 0.0000000000000000e+00
14 0.0000000000000000e+00 0.0000000000000000e+00 0.0000000000000000e+00
11 0.0000000000000000e+00 0.0000000000000000e+00 0.0000000000000000e+00
15 0.0000000000000000e+00 0.0000000000000000e+00 0.0000000000000000e+00
12 0.0000000000000000e+00 0.0000000000000000e+00 0.0000000000000000e+00
16 0.0000000000000000e+00 0.0000000000000000e+00 0.0000000000000000e+00
33 0.0000000000000000e+00 0.0000000000000000e+00 0.0000000000000000e+00
34 0.0000000000000000e+00 0.0000000000000000e+00 0.0000000000000000e+00
31 0.0000000000000000e+00 0.0000000000000000e+00 0.0000000000000000e+00
35 0.0000000000000000e+00 0.0000000000000000e+00 0.0000000000000000e+00
32 0.0000000000000000e+00 0.0000000000000000e+00 0.0000000000000000e+00
36 0.0000000000000000e+00 0.0000000000000000e+00 0.0000000000000000e+00
53 0.0000000000000000e+00 0.0000000000000000e+00 0.0000000000000000e+00
54 0.0000000000000000e+00 0.0000000000000000e+00 0.0000000000000000e+00
51 0.0000000000000000e+00 0.0000000000000000e+00 0.0000000000000000e+00
55 0.0000000000000000e+00 0.0000000000000000e+00 0.0000000000000000e+00
52 0.0000000000000000e+00 0.0000000000000000e+00 0.0000000000000000e+00
56 0.0000000000000000e+00 0.0000000000000000e+00 0.0000000000000000e+00
73 0.0000000000000000e+00 0.0000000000000000e+00 0.0000000000000000e+00
74 0.0000000000000000e+00 0.0000000000000000e+00 0.0000000000000000e+00
71 0.0000000000000000e+00 0.0000000000000000e+00 0.0000000000000000e+00
75 0.0000000000000000e+00 0.0000000000000000e+00 0.0000000000000000e+00
72 0.0000000000000000e+00 0.0000000000000000e+00 0.0000000000000000e+00
76 0.0000000000000000e+00 0.0000000000000000e+00 0.0000000000000000e+00
93 0.0000000000000000e+00 0.0000000000000000e+00 0.0000000000000000e+00
94 0.0000000000000000e+00 0.0000000000000000e+00 0.0000000000000000e+00
91 0.0000000000000000e+00 0.0000000000000000e+00 0.0000000000000000e+00
95 0.0000000000000000e+00 0.0000000000000000e+00 0.0000000000000000e+00
92 0.0000000000000000e+00 0.0000000000000000e+00 0.0000000000000000e+00
96 0.0000000000000000e+00 0.0000000000000000e+00 0.0000000000000000e+00
17 0.0000000000000000e+00 0.0000000000000000e+00 0.0000000000000000e+00
18 0.0000000000000000e+00 0.0000000000000000e+00 0.0000000000000000e+00
19 0.0000000000000000e+00 0.0000000000000000e+00 0.0000000000000000e+00
20 0.0000000000000000e+00 0.0000000000000000e+00 0.0000000000000000e+00
37 0.0000000000000000e+00 0.0000000000000000e+00 0.0000000000000000e+00
38 0.0000000000000000e+00 0.0000000000000000e+00 0.0000000000000000e+00
39 0.0000000000000000e+00 0.0000000000000000e+00 0.0000000000000000e+00
40 0.0000000000000000e+00 0.0000000000000000e+00 0.0000000000000000e+00
57 0.0000000000000000e+00 0.0000000000000000e+00 0.0000000000000000e+00
58 0.0000000000000000e+00 0.0000000000000000e+00 0.0000000000000000e+00
59 0.0000000000000000e+00 0.0000000000000000e+00 0.0000000000000000e+00
60 0.0000000000000000e+00 0.0000000000000000e+00 0.0000000000000000e+00
77 0.0000000000000000e+00 0.0000000000000000e+00 0.0000000000000000e+00
78 0.0000000000000000e+00 0.0000000000000000e+00 0.0000000000000000e+00
79 0.0000000000000000e+00 0.0000000000000000e+00 0.0000000000000000e+00
80 0.0000000000000000e+00 0.0000000000000000e+00 0.0000000000000000e+00
97 0.0000000000000000e+00 0.0000000000000000e+00 0.0000000000000000e+00
98 0.0000000000000000e+00 0.0000000000000000e+00 0.0000000000000000e+00
99 0.0000000000000000e+00 0.0000000000000000e+00 0.0000000000000000e+00
100 0.0000000000000000e+00 0.0000000000000000e+00 0.0000000000000000e+00
