LAMMPS data file via write_data, version 7 Aug 2019, timestep = 293

2882 atoms
4 atom types

9.5692267392453156e-01 2.9664602891660422e+01 xlo xhi
5.5247960016523612e-01 3.0386378009088105e+01 ylo yhi
2.5264994561469627e+00 8.1720684481794237e+01 zlo zhi

Masses

1 196.966
2 196.966
3 22.9898
4 35.453

Pair Coeffs # lj/charmmfsw/coul/charmmfsh

1 5.29 2.62904 5.29 2.62904
2 5.29 2.62904 5.29 2.62904
3 0.0469 2.42993 0.0469 2.42993
4 0.15 4.04468 0.15 4.04468

Atoms # full

685 0 1 0.0000000000000000e+00 7.1771631196519392e+00 4.1437481649420906e+00 2.5345209800012514e+00 0 0 0
714 0 1 0.0000000000000000e+00 4.3063913201387116e+00 4.1437559131566015e+00 2.5345501078329686e+00 0 0 0
715 0 1 0.0000000000000000e+00 1.4356244455252649e+00 4.1437635795071417e+00 2.5345799060718832e+00 0 0 0
718 0 1 0.0000000000000000e+00 7.1771669366308499e+00 5.8011886610070995e+00 4.9029431934343890e+00 0 0 0
719 0 1 0.0000000000000000e+00 4.3063969947936496e+00 5.8011966644161683e+00 4.9029724834862938e+00 0 0 0
751 0 1 0.0000000000000000e+00 1.4356290372622975e+00 5.8012034878371024e+00 4.9030040408868825e+00 0 0 0
930 0 1 0.0000000000000000e+00 5.7417764547825678e+00 1.6575919438310696e+00 2.5345345043926448e+00 0 0 0
934 0 1 0.0000000000000000e+00 7.1771678472295513e+00 8.2886883404223377e-01 4.9029460437499210e+00 0 0 0
962 0 1 0.0000000000000000e+00 2.8710085683590640e+00 1.6576007533586803e+00 2.5345651860027134e+00 0 0 0
963 0 1 0.0000000000000000e+00 2.8710156551748693e+00 3.3150416259410993e+00 4.9029876997308435e+00 0 0 0
964 0 1 0.0000000000000000e+00 4.3064002601365070e+00 8.2887770537812977e-01 4.9029734391636035e+00 0 0 0
965 0 1 0.0000000000000000e+00 1.4356328522698716e+00 8.2888633188804683e-01 4.9029989959499458e+00 0 0 0
966 0 1 0.0000000000000000e+00 5.7417838162788684e+00 3.3150327251234715e+00 4.9029561533489794e+00 0 0 0
967 0 1 0.0000000000000000e+00 5.7417847530408599e+00 4.9724746231619275e+00 7.2500863886892830e+00 0 0 0
968 0 1 0.0000000000000000e+00 7.1771708104199838e+00 2.4863094101269563e+00 7.2500758040239566e+00 0 0 0
969 0 1 0.0000000000000000e+00 4.3064036386581268e+00 2.4863202275700802e+00 7.2501044533181647e+00 0 0 0
973 0 1 0.0000000000000000e+00 7.1771690541539490e+00 4.1437519002291809e+00 9.5943821970905621e+00 0 0 0
1001 0 1 0.0000000000000000e+00 1.4356360532966521e+00 2.4863296374651975e+00 7.2501333216688044e+00 0 0 0
1002 0 1 0.0000000000000000e+00 2.8710167666999649e+00 4.9724846707075425e+00 7.2501202853545479e+00 0 0 0
1004 0 1 0.0000000000000000e+00 4.3064016872368152e+00 4.1437641427245824e+00 9.5944144167446446e+00 0 0 0
1005 0 1 0.0000000000000000e+00 1.4356344225949766e+00 4.1437748438753994e+00 9.5944479500753914e+00 0 0 0
1160 0 1 0.0000000000000000e+00 5.7417877762261886e+00 1.6575977562684012e+00 9.5944033577476944e+00 0 0 0
1192 0 1 0.0000000000000000e+00 2.8710212279433507e+00 1.6576110436228766e+00 9.5944340002169302e+00 0 0 0
713 0 1 0.0000000000000000e+00 2.8710049659189387e+00 6.6299183605614704e+00 2.5345674448140332e+00 0 0 0
1006 0 1 0.0000000000000000e+00 5.7417802731846725e+00 6.6299196900137298e+00 9.5943916028128982e+00 0 0 0
1003 0 1 0.0000000000000000e+00 2.8710123013149866e+00 6.6299305259844097e+00 9.5944301693981640e+00 0 0 0
755 0 1 0.0000000000000000e+00 1.4356274018928084e+00 7.4586476711438356e+00 7.2501368666927188e+00 0 0 0
754 0 1 0.0000000000000000e+00 4.3063952528274481e+00 7.4586404214881785e+00 7.2501023961702042e+00 0 0 0
723 0 1 0.0000000000000000e+00 7.1771646226511576e+00 7.4586317697611895e+00 7.2500714251526119e+00 0 0 0
716 0 1 0.0000000000000000e+00 5.7417749541759866e+00 6.6299105297234773e+00 2.5345359901687288e+00 0 0 0
663 0 1 0.0000000000000000e+00 1.2918711771947361e+01 4.1437487391594860e+00 2.5345222127977940e+00 0 0 0
684 0 1 0.0000000000000000e+00 1.0047937946919012e+01 4.1437452942733035e+00 2.5345100104036704e+00 0 0 0
688 0 1 0.0000000000000000e+00 1.2918707276825167e+01 5.8011883455919673e+00 4.9029451507152402e+00 0 0 0
689 0 1 0.0000000000000000e+00 1.0047937539330958e+01 5.8011850067109698e+00 4.9029324394851610e+00 0 0 0
906 0 1 0.0000000000000000e+00 1.1483322821805379e+01 1.6575861042544702e+00 2.5345146499439104e+00 0 0 0
907 0 1 0.0000000000000000e+00 1.4354094392243093e+01 1.6575919485859492e+00 2.5345343022554165e+00 0 0 0
908 0 1 0.0000000000000000e+00 1.4354090914149575e+01 3.3150318548000941e+00 4.9029568703307831e+00 0 0 0
910 0 1 0.0000000000000000e+00 1.2918704373458036e+01 8.2886920330065583e-01 4.9029480757897996e+00 0 0 0
931 0 1 0.0000000000000000e+00 8.6125488962348946e+00 1.6575856111233529e+00 2.5345124749390515e+00 0 0 0
932 0 1 0.0000000000000000e+00 8.6125531498738521e+00 3.3150258273201549e+00 4.9029342840391203e+00 0 0 0
933 0 1 0.0000000000000000e+00 1.0047936232387498e+01 8.2886552011845727e-01 4.9029360000719429e+00 0 0 0
935 0 1 0.0000000000000000e+00 1.1483322708150574e+01 3.3150260600590671e+00 4.9029364430482962e+00 0 0 0
936 0 1 0.0000000000000000e+00 1.1483321009424142e+01 4.9724666176051509e+00 7.2500670185140246e+00 0 0 0
937 0 1 0.0000000000000000e+00 1.2918703848880275e+01 2.4863094326844655e+00 7.2500797902045884e+00 0 0 0
938 0 1 0.0000000000000000e+00 1.0047937547078609e+01 2.4863052245275430e+00 7.2500660871145826e+00 0 0 0
939 0 1 0.0000000000000000e+00 1.4354087648297297e+01 4.9724730475223602e+00 7.2500897006697285e+00 0 0 0
942 0 1 0.0000000000000000e+00 1.2918702227470822e+01 4.1437518217706097e+00 9.5943896802881099e+00 0 0 0
970 0 1 0.0000000000000000e+00 8.6125530518647153e+00 4.9724664952827560e+00 7.2500640410387174e+00 0 0 0
972 0 1 0.0000000000000000e+00 1.0047936193121602e+01 4.1437470580692475e+00 9.5943726103060936e+00 0 0 0
1136 0 1 0.0000000000000000e+00 1.1483318908866318e+01 1.6575881813382183e+00 9.5943866605581771e+00 0 0 0
1137 0 1 0.0000000000000000e+00 1.4354084498631536e+01 1.6575965759726266e+00 9.5944069685402855e+00 0 0 0
1161 0 1 0.0000000000000000e+00 8.6125537316508378e+00 1.6575878963341295e+00 9.5943828672291644e+00 0 0 0
974 0 1 0.0000000000000000e+00 1.1483318157910725e+01 6.6299111396995558e+00 9.5943720990438557e+00 0 0 0
971 0 1 0.0000000000000000e+00 8.6125493980471841e+00 6.6299110353994655e+00 9.5943673522511048e+00 0 0 0
940 0 1 0.0000000000000000e+00 1.4354085325599948e+01 6.6299178736432962e+00 9.5943991430901487e+00 0 0 0
722 0 1 0.0000000000000000e+00 1.0047934379626399e+01 7.4586274104240333e+00 7.2500608399808222e+00 0 0 0
693 0 1 0.0000000000000000e+00 1.2918703305427854e+01 7.4586306681473529e+00 7.2500755489949178e+00 0 0 0
686 0 1 0.0000000000000000e+00 1.1483325294956529e+01 6.6299061793723029e+00 2.5345157972206374e+00 0 0 0
683 0 1 0.0000000000000000e+00 8.6125496354335649e+00 6.6299055479444506e+00 2.5345149820547910e+00 0 0 0
661 0 1 0.0000000000000000e+00 1.4354098254492287e+01 6.6299110425200647e+00 2.5345358425037676e+00 0 0 0
792 0 1 0.0000000000000000e+00 2.8709975364224394e+00 1.1602252038021730e+01 9.5944313908323604e+00 0 0 0
791 0 1 0.0000000000000000e+00 1.4356207896123760e+00 9.1160951761342730e+00 9.5944470568061995e+00 0 0 0
759 0 1 0.0000000000000000e+00 4.3063884194945148e+00 9.1160874445072082e+00 9.5944091643081606e+00 0 0 0
758 0 1 0.0000000000000000e+00 7.1771589428402986e+00 9.1160780865250963e+00 9.5943763160406625e+00 0 0 0
757 0 1 0.0000000000000000e+00 5.7417679626621743e+00 1.1602243222754971e+01 9.5943994785949762e+00 0 0 0
756 0 1 0.0000000000000000e+00 5.7417732353345619e+00 9.9447971257586101e+00 7.2500873380950104e+00 0 0 0
753 0 1 0.0000000000000000e+00 2.8710036208055572e+00 9.9448045468505608e+00 7.2501203592864822e+00 0 0 0
752 0 1 0.0000000000000000e+00 2.8710076606561477e+00 8.2873593364221154e+00 4.9029896852771069e+00 0 0 0
717 0 1 0.0000000000000000e+00 5.7417774066054577e+00 8.2873522133414976e+00 4.9029574488990351e+00 0 0 0
531 0 1 0.0000000000000000e+00 1.4356138659806366e+00 1.2430966172979094e+01 7.2501365310171257e+00 0 0 0
499 0 1 0.0000000000000000e+00 4.3063825753114289e+00 1.2430959774615719e+01 7.2501090147850871e+00 0 0 0
498 0 1 0.0000000000000000e+00 7.1771544574162132e+00 1.2430952206075668e+01 7.2500847681031422e+00 0 0 0
495 0 1 0.0000000000000000e+00 1.4356169612227478e+00 1.0773520130236392e+01 4.9030056732739977e+00 0 0 0
494 0 1 0.0000000000000000e+00 4.3063857460423653e+00 1.0773514838391101e+01 4.9029753951217110e+00 0 0 0
492 0 1 0.0000000000000000e+00 2.8709951987797031e+00 1.1602232477177077e+01 2.5345697385612391e+00 0 0 0
491 0 1 0.0000000000000000e+00 1.4356172608437676e+00 9.1160781743320314e+00 2.5345839550063269e+00 0 0 0
463 0 1 0.0000000000000000e+00 7.1771576681959113e+00 1.0773508465148675e+01 4.9029487763369071e+00 0 0 0
459 0 1 0.0000000000000000e+00 4.3063855233343631e+00 9.1160727328213760e+00 2.5345528672725126e+00 0 0 0
458 0 1 0.0000000000000000e+00 7.1771586281273443e+00 9.1160665771444922e+00 2.5345254852335399e+00 0 0 0
457 0 1 0.0000000000000000e+00 5.7417665302526224e+00 1.1602227262981343e+01 2.5345423808100311e+00 0 0 0
255 0 1 0.0000000000000000e+00 7.1771499666287868e+00 1.4088380797125625e+01 2.5345408480088083e+00 0 0 0
284 0 1 0.0000000000000000e+00 4.3063761751002918e+00 1.4088385960979407e+01 2.5345605751249245e+00 0 0 0
285 0 1 0.0000000000000000e+00 1.4356080808129539e+00 1.4088391578323083e+01 2.5345819563300425e+00 0 0 0
493 0 1 0.0000000000000000e+00 2.8709957795822261e+00 1.3259675230913038e+01 4.9029928888264243e+00 0 0 0
496 0 1 0.0000000000000000e+00 5.7417666813707182e+00 1.3259668993137433e+01 4.9029687337548573e+00 0 0 0
497 0 1 0.0000000000000000e+00 5.7417661429900058e+00 1.4917112227484864e+01 7.2501073388916613e+00 0 0 0
503 0 1 0.0000000000000000e+00 7.1771523658641394e+00 1.4088395715320488e+01 9.5944056633964223e+00 0 0 0
532 0 1 0.0000000000000000e+00 2.8709957422124641e+00 1.4917120583888401e+01 7.2501269775102806e+00 0 0 0
534 0 1 0.0000000000000000e+00 4.3063800697679966e+00 1.4088405295838463e+01 9.5944260768482064e+00 0 0 0
535 0 1 0.0000000000000000e+00 1.4356112896632234e+00 1.4088414208286700e+01 9.5944493518760900e+00 0 0 0
760 0 1 0.0000000000000000e+00 8.6125413330427545e+00 1.1602235670572577e+01 9.5943795563445278e+00 0 0 0
728 0 1 0.0000000000000000e+00 1.4354087898072974e+01 1.1602239095155817e+01 9.5944036881030250e+00 0 0 0
727 0 1 0.0000000000000000e+00 1.0047930665189186e+01 9.1160734481483683e+00 9.5943660602696266e+00 0 0 0
726 0 1 0.0000000000000000e+00 1.2918701715468199e+01 9.1160766535094488e+00 9.5943829951002648e+00 0 0 0
725 0 1 0.0000000000000000e+00 1.1483315216529444e+01 1.1602234643217301e+01 9.5943822434407906e+00 0 0 0
724 0 1 0.0000000000000000e+00 1.1483316158916525e+01 9.9447896523364268e+00 7.2500687222718119e+00 0 0 0
721 0 1 0.0000000000000000e+00 8.6125446963630026e+00 9.9447905677602506e+00 7.2500662949680637e+00 0 0 0
720 0 1 0.0000000000000000e+00 8.6125490483933547e+00 8.2873466735378845e+00 4.9029362803220264e+00 0 0 0
691 0 1 0.0000000000000000e+00 1.4354087200461308e+01 9.9447935927182556e+00 7.2500910574518986e+00 0 0 0
690 0 1 0.0000000000000000e+00 1.4354090921729412e+01 8.2873506962479198e+00 4.9029589367047750e+00 0 0 0
687 0 1 0.0000000000000000e+00 1.1483320437890098e+01 8.2873464514294284e+00 4.9029376028076923e+00 0 0 0
467 0 1 0.0000000000000000e+00 1.0047927649634085e+01 1.2430948003395514e+01 7.2500761203662805e+00 0 0 0
466 0 1 0.0000000000000000e+00 1.2918700857003458e+01 1.2430949242780944e+01 7.2500873675506758e+00 0 0 0
462 0 1 0.0000000000000000e+00 1.0047930877349975e+01 1.0773505440382632e+01 4.9029388719690683e+00 0 0 0
460 0 1 0.0000000000000000e+00 8.6125424293157113e+00 1.1602223120108761e+01 2.5345228067829164e+00 0 0 0
437 0 1 0.0000000000000000e+00 1.2918703576622750e+01 1.0773507303336350e+01 4.9029513062125902e+00 0 0 0
434 0 1 0.0000000000000000e+00 1.4354094630529378e+01 1.1602226846722839e+01 2.5345444945047539e+00 0 0 0
433 0 1 0.0000000000000000e+00 1.0047935264925860e+01 9.1160646753274666e+00 2.5345144292546591e+00 0 0 0
432 0 1 0.0000000000000000e+00 1.2918710966514432e+01 9.1160674638759556e+00 2.5345267970834007e+00 0 0 0
431 0 1 0.0000000000000000e+00 1.1483319728399675e+01 1.1602223723574820e+01 2.5345240876291730e+00 0 0 0
233 0 1 0.0000000000000000e+00 1.2918702862733959e+01 1.4088381208697056e+01 2.5345431283079645e+00 0 0 0
254 0 1 0.0000000000000000e+00 1.0047926604767268e+01 1.4088379057253723e+01 2.5345327943588249e+00 0 0 0
435 0 1 0.0000000000000000e+00 1.4354087157342406e+01 1.3259666647863565e+01 4.9029702225764789e+00 0 0 0
461 0 1 0.0000000000000000e+00 8.6125401982792660e+00 1.3259663468870956e+01 4.9029521257978539e+00 0 0 0
464 0 1 0.0000000000000000e+00 1.1483314194417058e+01 1.3259662850334488e+01 4.9029534345557026e+00 0 0 0
465 0 1 0.0000000000000000e+00 1.1483312292434526e+01 1.4917103675404643e+01 7.2500937651382165e+00 0 0 0
468 0 1 0.0000000000000000e+00 1.4354084543153142e+01 1.4917108464720924e+01 7.2501063426896524e+00 0 0 0
471 0 1 0.0000000000000000e+00 1.2918700385817059e+01 1.4088392874823214e+01 9.5944061086392178e+00 0 0 0
500 0 1 0.0000000000000000e+00 8.6125388069912532e+00 1.4917105199356902e+01 7.2500935781903832e+00 0 0 0
502 0 1 0.0000000000000000e+00 1.0047926460070091e+01 1.4088390951661133e+01 9.5943976481517712e+00 0 0 0
1008 0 1 0.0000000000000000e+00 7.1771636412196811e+00 5.8011974188554873e+00 1.1938361857183263e+01 0 0 0
1009 0 1 0.0000000000000000e+00 4.3063954286190098e+00 5.8012108671487717e+00 1.1938401885035775e+01 0 0 0
1039 0 1 0.0000000000000000e+00 1.4356289625156031e+00 5.8012225025941646e+00 1.1938443761510641e+01 0 0 0
1164 0 1 0.0000000000000000e+00 7.1771687217417153e+00 8.2887432819742579e-01 1.1938390025179057e+01 0 0 0
1193 0 1 0.0000000000000000e+00 2.8710176742132130e+00 3.3150567859873803e+00 1.1938429446493936e+01 0 0 0
1194 0 1 0.0000000000000000e+00 4.3064034914503937e+00 8.2889001642113092e-01 1.1938418499320376e+01 0 0 0
1195 0 1 0.0000000000000000e+00 1.4356362501768660e+00 8.2890381274527103e-01 1.1938444520293887e+01 0 0 0
1196 0 1 0.0000000000000000e+00 5.7417841033175172e+00 3.3150412583501909e+00 1.1938391086834166e+01 0 0 0
1197 0 1 0.0000000000000000e+00 5.7417781862137645e+00 4.9724866521061717e+00 1.4282348477000301e+01 0 0 0
1198 0 1 0.0000000000000000e+00 7.1771647662383478e+00 2.4863143317129981e+00 1.4282351171126139e+01 0 0 0
1199 0 1 0.0000000000000000e+00 4.3063998734876670e+00 2.4863344901670459e+00 1.4282389904252740e+01 0 0 0
1225 0 1 0.0000000000000000e+00 1.4356327082099469e+00 2.4863503464052696e+00 1.4282422871571804e+01 0 0 0
1226 0 1 0.0000000000000000e+00 2.8710126153840929e+00 4.9725046038432623e+00 1.4282401394855302e+01 0 0 0
1203 0 1 0.0000000000000000e+00 7.1771602445223746e+00 4.1437541369791919e+00 1.6626292064920548e+01 0 0 0
1228 0 1 0.0000000000000000e+00 4.3063967534695236e+00 4.1437807477953292e+00 1.6626353407409709e+01 0 0 0
1229 0 1 0.0000000000000000e+00 1.4356303812644842e+00 4.1437979785557095e+00 1.6626398556360506e+01 0 0 0
1328 0 1 0.0000000000000000e+00 5.7417799354868331e+00 1.6576051872068500e+00 1.6626351364088713e+01 0 0 0
1350 0 1 0.0000000000000000e+00 2.8710144492674936e+00 1.6576302603193573e+00 1.6626388097235797e+01 0 0 0
1043 0 1 0.0000000000000000e+00 1.4356208576169593e+00 7.4586724998257097e+00 1.4282417136332700e+01 0 0 0
1042 0 1 0.0000000000000000e+00 4.3063852381882599e+00 7.4586615152821816e+00 1.4282361628951723e+01 0 0 0
1013 0 1 0.0000000000000000e+00 7.1771560690291558e+00 7.4586473931040995e+00 1.4282308130044523e+01 0 0 0
1227 0 1 0.0000000000000000e+00 2.8710048218717361e+00 6.6299553258413795e+00 1.6626367351726643e+01 0 0 0
1230 0 1 0.0000000000000000e+00 5.7417683418102108e+00 6.6299370736707051e+00 1.6626286780089270e+01 0 0 0
976 0 1 0.0000000000000000e+00 1.2918700448468835e+01 5.8011985434711706e+00 1.1938375520393040e+01 0 0 0
977 0 1 0.0000000000000000e+00 1.0047933000512730e+01 5.8011924273992204e+00 1.1938351845824418e+01 0 0 0
1138 0 1 0.0000000000000000e+00 1.4354082622878533e+01 3.3150418016771561e+00 1.1938400736161300e+01 0 0 0
1140 0 1 0.0000000000000000e+00 1.2918698918802573e+01 8.2887591996231291e-01 1.1938395883514847e+01 0 0 0
1162 0 1 0.0000000000000000e+00 8.6125506896783346e+00 3.3150295908847016e+00 1.1938366495895279e+01 0 0 0
1163 0 1 0.0000000000000000e+00 1.0047933550508692e+01 8.2886861219927011e-01 1.1938381689835017e+01 0 0 0
1165 0 1 0.0000000000000000e+00 1.1483316843025372e+01 3.3150309781263370e+00 1.1938373829149763e+01 0 0 0
1166 0 1 0.0000000000000000e+00 1.1483314378933141e+01 4.9724766121024997e+00 1.4282329145606482e+01 0 0 0
1167 0 1 0.0000000000000000e+00 1.2918695610139064e+01 2.4863202760279153e+00 1.4282365592475601e+01 0 0 0
1168 0 1 0.0000000000000000e+00 1.0047930222571880e+01 2.4863086612851437e+00 1.4282342035974283e+01 0 0 0
1169 0 1 0.0000000000000000e+00 1.4354079885886195e+01 4.9724901582537235e+00 1.4282369724777769e+01 0 0 0
1200 0 1 0.0000000000000000e+00 8.6125461674259149e+00 4.9724732184830298e+00 1.4282314678265729e+01 0 0 0
1172 0 1 0.0000000000000000e+00 1.2918691173956999e+01 4.1437669736798526e+00 1.6626325558093598e+01 0 0 0
1202 0 1 0.0000000000000000e+00 1.0047926725979680e+01 4.1437486526668765e+00 1.6626281130127978e+01 0 0 0
1306 0 1 0.0000000000000000e+00 1.1483308314081700e+01 1.6575943222758800e+00 1.6626332554418752e+01 0 0 0
1307 0 1 0.0000000000000000e+00 1.4354074852066500e+01 1.6576142608669482e+00 1.6626359241523822e+01 0 0 0
1329 0 1 0.0000000000000000e+00 8.6125437970176488e+00 1.6575845412514645e+00 1.6626319819157850e+01 0 0 0
1012 0 1 0.0000000000000000e+00 1.0047931270860172e+01 7.4586425472866669e+00 1.4282297374507785e+01 0 0 0
981 0 1 0.0000000000000000e+00 1.2918702335149799e+01 7.4586495190652560e+00 1.4282333220936680e+01 0 0 0
1170 0 1 0.0000000000000000e+00 1.4354080716741741e+01 6.6299417130728147e+00 1.6626332111790838e+01 0 0 0
1201 0 1 0.0000000000000000e+00 8.6125417142333909e+00 6.6299219658458375e+00 1.6626235821230839e+01 0 0 0
1204 0 1 0.0000000000000000e+00 1.1483316030466693e+01 6.6299275713866663e+00 1.6626264374123970e+01 0 0 0
1044 0 1 0.0000000000000000e+00 5.7417609861537535e+00 9.9448200738617185e+00 1.4282334480959436e+01 0 0 0
1041 0 1 0.0000000000000000e+00 2.8709905344696511e+00 9.9448317529410115e+00 1.4282388137360215e+01 0 0 0
1040 0 1 0.0000000000000000e+00 2.8710033760348233e+00 8.2873797555879758e+00 1.1938419354974268e+01 0 0 0
1007 0 1 0.0000000000000000e+00 5.7417719705297214e+00 8.2873683449536806e+00 1.1938373451493947e+01 0 0 0
825 0 1 0.0000000000000000e+00 1.4356028961315166e+00 1.2430995617872448e+01 1.4282416819961044e+01 0 0 0
799 0 1 0.0000000000000000e+00 4.3063712977944046e+00 1.2430985405800159e+01 1.4282379154966689e+01 0 0 0
798 0 1 0.0000000000000000e+00 7.1771484067653226e+00 1.2430972696280962e+01 1.4282347054665433e+01 0 0 0
795 0 1 0.0000000000000000e+00 1.4356116889755295e+00 1.0773545286943325e+01 1.1938439711244177e+01 0 0 0
794 0 1 0.0000000000000000e+00 4.3063795630124000e+00 1.0773536575431219e+01 1.1938400008835741e+01 0 0 0
763 0 1 0.0000000000000000e+00 7.1771530870933971e+00 1.0773526186440225e+01 1.1938366025188499e+01 0 0 0
1045 0 1 0.0000000000000000e+00 5.7417492653845006e+00 1.1602270376931951e+01 1.6626307866322211e+01 0 0 0
1046 0 1 0.0000000000000000e+00 7.1771453103844900e+00 9.1161022928074669e+00 1.6626244976754673e+01 0 0 0
1047 0 1 0.0000000000000000e+00 4.3063678468430941e+00 9.1161163052945913e+00 1.6626315878032436e+01 0 0 0
1069 0 1 0.0000000000000000e+00 1.4356076605396422e+00 9.1161235472040776e+00 1.6626389305190809e+01 0 0 0
1070 0 1 0.0000000000000000e+00 2.8709757555826116e+00 1.1602283569141495e+01 1.6626363085617424e+01 0 0 0
793 0 1 0.0000000000000000e+00 2.8709921223006649e+00 1.3259700050296956e+01 1.1938429481247791e+01 0 0 0
796 0 1 0.0000000000000000e+00 5.7417637179353909e+00 1.3259688920084738e+01 1.1938401511465276e+01 0 0 0
797 0 1 0.0000000000000000e+00 5.7417634607010877e+00 1.4917131864853554e+01 1.4282392543433289e+01 0 0 0
826 0 1 0.0000000000000000e+00 2.8709911672365758e+00 1.4917145884876144e+01 1.4282415332558042e+01 0 0 0
803 0 1 0.0000000000000000e+00 7.1771474177463190e+00 1.4088412357224716e+01 1.6626345390978123e+01 0 0 0
828 0 1 0.0000000000000000e+00 4.3063688191700331e+00 1.4088429163380173e+01 1.6626372022291761e+01 0 0 0
829 0 1 0.0000000000000000e+00 1.4355992050688930e+00 1.4088442113001561e+01 1.6626402103406594e+01 0 0 0
1014 0 1 0.0000000000000000e+00 1.1483321141007432e+01 9.9448116180714319e+00 1.4282314371514174e+01 0 0 0
1011 0 1 0.0000000000000000e+00 8.6125408888661728e+00 9.9448108796853969e+00 1.4282303402710058e+01 0 0 0
1010 0 1 0.0000000000000000e+00 8.6125445989424971e+00 8.2873595213360360e+00 1.1938345854136884e+01 0 0 0
979 0 1 0.0000000000000000e+00 1.4354093325739271e+01 9.9448180647275422e+00 1.4282356272039257e+01 0 0 0
978 0 1 0.0000000000000000e+00 1.4354086490057721e+01 8.2873665436427153e+00 1.1938387697419925e+01 0 0 0
975 0 1 0.0000000000000000e+00 1.1483317326688779e+01 8.2873598314389554e+00 1.1938353570350005e+01 0 0 0
767 0 1 0.0000000000000000e+00 1.0047930224230329e+01 1.2430967890337175e+01 1.4282337503969661e+01 0 0 0
766 0 1 0.0000000000000000e+00 1.2918709139970856e+01 1.2430972968547447e+01 1.4282354685798099e+01 0 0 0
762 0 1 0.0000000000000000e+00 1.0047929569607970e+01 1.0773521520005751e+01 1.1938356093263591e+01 0 0 0
731 0 1 0.0000000000000000e+00 1.2918704498093900e+01 1.0773525029167155e+01 1.1938374577277857e+01 0 0 0
1015 0 1 0.0000000000000000e+00 1.1483328330576171e+01 1.1602261242832961e+01 1.6626288264653930e+01 0 0 0
1016 0 1 0.0000000000000000e+00 1.2918713006756846e+01 9.1161045358213784e+00 1.6626285775029672e+01 0 0 0
1017 0 1 0.0000000000000000e+00 1.0047934053771588e+01 9.1160974582102927e+00 1.6626233394490946e+01 0 0 0
1018 0 1 0.0000000000000000e+00 1.4354103970111655e+01 1.1602269300529564e+01 1.6626331942394359e+01 0 0 0
1048 0 1 0.0000000000000000e+00 8.6125385271873842e+00 1.1602259181778859e+01 1.6626276515278008e+01 0 0 0
729 0 1 0.0000000000000000e+00 1.4354090043140662e+01 1.3259685558953571e+01 1.1938403390298710e+01 0 0 0
761 0 1 0.0000000000000000e+00 8.6125393852696348e+00 1.3259680012220107e+01 1.1938383443853208e+01 0 0 0
764 0 1 0.0000000000000000e+00 1.1483315861554972e+01 1.3259679466634177e+01 1.1938385144558785e+01 0 0 0
765 0 1 0.0000000000000000e+00 1.1483316402901147e+01 1.4917121791496625e+01 1.4282375819368884e+01 0 0 0
768 0 1 0.0000000000000000e+00 1.4354090879907366e+01 1.4917130373190549e+01 1.4282389628412760e+01 0 0 0
800 0 1 0.0000000000000000e+00 8.6125394717927790e+00 1.4917121101501264e+01 1.4282376156427553e+01 0 0 0
771 0 1 0.0000000000000000e+00 1.2918710075578396e+01 1.4088415864326983e+01 1.6626347645519317e+01 0 0 0
802 0 1 0.0000000000000000e+00 1.0047930336760269e+01 1.4088407201182877e+01 1.6626335788797103e+01 0 0 0
1232 0 1 0.0000000000000000e+00 7.1771530319673449e+00 5.8011970435269564e+00 1.8970194169093102e+01 0 0 0
1233 0 1 0.0000000000000000e+00 4.3063918181992964e+00 5.8012320549935090e+00 1.8970307395587888e+01 0 0 0
1251 0 1 0.0000000000000000e+00 1.4356275646278149e+00 5.8012464838637268e+00 1.8970376125924837e+01 0 0 0
1332 0 1 0.0000000000000000e+00 7.1771581979903685e+00 8.2887002552583910e-01 1.8970322794173487e+01 0 0 0
1351 0 1 0.0000000000000000e+00 2.8710151386541760e+00 3.3150791731381219e+00 1.8970362426049448e+01 0 0 0
1352 0 1 0.0000000000000000e+00 4.3063928844831985e+00 8.2890594089525194e-01 1.8970357683611969e+01 0 0 0
1353 0 1 0.0000000000000000e+00 1.4356261464293354e+00 8.2892611332536892e-01 1.8970380543646993e+01 0 0 0
1354 0 1 0.0000000000000000e+00 5.7417799718070617e+00 3.3150453268595275e+00 1.8970306154966387e+01 0 0 0
1355 0 1 0.0000000000000000e+00 5.7417838503414833e+00 4.9724904246458497e+00 2.1314253389873553e+01 0 0 0
1356 0 1 0.0000000000000000e+00 7.1771598846064224e+00 2.4862909507727515e+00 2.1314290109234399e+01 0 0 0
1357 0 1 0.0000000000000000e+00 4.3063972091929958e+00 2.4863570623833753e+00 2.1314350509519773e+01 0 0 0
1361 0 1 0.0000000000000000e+00 7.1771761676902832e+00 4.1436861108024150e+00 2.3658514406441046e+01 0 0 0
1371 0 1 0.0000000000000000e+00 1.4356281189888878e+00 2.4863757991082784e+00 2.1314375589135793e+01 0 0 0
1372 0 1 0.0000000000000000e+00 2.8710212362185894e+00 4.9725319421187830e+00 2.1314357112386226e+01 0 0 0
1374 0 1 0.0000000000000000e+00 4.3064211405504791e+00 4.1438231494684912e+00 2.3658662089676405e+01 0 0 0
1375 0 1 0.0000000000000000e+00 1.4356402608004342e+00 4.1438255701994633e+00 2.3658687673121975e+01 0 0 0
1378 0 1 0.0000000000000000e+00 7.1772438913822105e+00 5.8010199524689687e+00 2.6005284439012723e+01 0 0 0
1379 0 1 0.0000000000000000e+00 4.3065147563095874e+00 5.8013150657026289e+00 2.6005808574119797e+01 0 0 0
1385 0 1 0.0000000000000000e+00 1.4356778193315938e+00 5.8012643352498099e+00 2.6005830493368403e+01 0 0 0
1420 0 1 0.0000000000000000e+00 5.7417629338307190e+00 1.6576238618436703e+00 2.3658664079813857e+01 0 0 0
1424 0 1 0.0000000000000000e+00 7.1771541774923708e+00 8.2899733426977484e-01 2.6005848172196536e+01 0 0 0
1430 0 1 0.0000000000000000e+00 2.8710092506741245e+00 1.6576689490072944e+00 2.3658687090494986e+01 0 0 0
1431 0 1 0.0000000000000000e+00 2.8710427943779426e+00 3.3151416882183451e+00 2.6005816752008531e+01 0 0 0
1432 0 1 0.0000000000000000e+00 4.3063858067720853e+00 8.2896141435260606e-01 2.6005823743527849e+01 0 0 0
1433 0 1 0.0000000000000000e+00 1.4356319019937669e+00 8.2896527096968498e-01 2.6005832136231636e+01 0 0 0
1434 0 1 0.0000000000000000e+00 5.7417777196138475e+00 3.3150934045679592e+00 2.6005801656636404e+01 0 0 0
1237 0 1 0.0000000000000000e+00 7.1771321492462601e+00 7.4586559361717750e+00 2.1314044224927564e+01 0 0 0
1254 0 1 0.0000000000000000e+00 4.3063735424395961e+00 7.4586952030808398e+00 2.1314267626299877e+01 0 0 0
1255 0 1 0.0000000000000000e+00 1.4356209849257480e+00 7.4586919939448029e+00 2.1314378809869162e+01 0 0 0
1373 0 1 0.0000000000000000e+00 2.8710366814193042e+00 6.6299829458456747e+00 2.3658678332015629e+01 0 0 0
1376 0 1 0.0000000000000000e+00 5.7417831577420921e+00 6.6299611327836390e+00 2.3658452273642009e+01 0 0 0
1425 0 1 0.0000000000000000e+00 1.1483290714277869e+01 3.3150696221067815e+00 2.6005771715472342e+01 0 0 0
1423 0 1 0.0000000000000000e+00 1.0047907004576174e+01 8.2898707058046317e-01 2.6005838342230572e+01 0 0 0
1206 0 1 0.0000000000000000e+00 1.2918688912511682e+01 5.8012188784609702e+00 1.8970273233152874e+01 0 0 0
1207 0 1 0.0000000000000000e+00 1.0047925832904346e+01 5.8011918377918690e+00 1.8970180009482100e+01 0 0 0
1422 0 1 0.0000000000000000e+00 8.6125341654239946e+00 3.3151663664941444e+00 2.6005969756057898e+01 0 0 0
1421 0 1 0.0000000000000000e+00 8.6125331810998631e+00 1.6576171650612770e+00 2.3658695740893904e+01 0 0 0
1308 0 1 0.0000000000000000e+00 1.4354066642135740e+01 3.3150628456492863e+00 1.8970329947375312e+01 0 0 0
1310 0 1 0.0000000000000000e+00 1.2918688629158463e+01 8.2889101209819294e-01 1.8970330983667377e+01 0 0 0
1414 0 1 0.0000000000000000e+00 1.2918675934951432e+01 8.2893792020574564e-01 2.6005792438312739e+01 0 0 0
1330 0 1 0.0000000000000000e+00 8.6125403279132939e+00 3.3150109828975736e+00 1.8970248167569075e+01 0 0 0
1331 0 1 0.0000000000000000e+00 1.0047922181725367e+01 8.2886340394358815e-01 1.8970311606399662e+01 0 0 0
1333 0 1 0.0000000000000000e+00 1.1483301225819813e+01 3.3150338359875846e+00 1.8970283394041292e+01 0 0 0
1334 0 1 0.0000000000000000e+00 1.1483290517703438e+01 4.9724779554031144e+00 2.1314221610192558e+01 0 0 0
1335 0 1 0.0000000000000000e+00 1.2918676670145086e+01 2.4863395190403699e+00 2.1314320488757208e+01 0 0 0
1336 0 1 0.0000000000000000e+00 1.0047914295038970e+01 2.4862818777354931e+00 2.1314275366300969e+01 0 0 0
1337 0 1 0.0000000000000000e+00 1.4354052304297436e+01 4.9725152989092161e+00 2.1314318169339455e+01 0 0 0
1340 0 1 0.0000000000000000e+00 1.2918645644082057e+01 4.1438039069024546e+00 2.3658623808057566e+01 0 0 0
1358 0 1 0.0000000000000000e+00 8.6125366973492667e+00 4.9724285112794684e+00 2.1314122115020901e+01 0 0 0
1360 0 1 0.0000000000000000e+00 1.0047894195633061e+01 4.1436714678896358e+00 2.3658488495321023e+01 0 0 0
1364 0 1 0.0000000000000000e+00 1.2918553422001551e+01 5.8012972181503484e+00 2.6005756382653104e+01 0 0 0
1365 0 1 0.0000000000000000e+00 1.0047837637758898e+01 5.8009921243657354e+00 2.6005223627251624e+01 0 0 0
1410 0 1 0.0000000000000000e+00 1.1483303758515714e+01 1.6576060035995601e+00 2.3658640889149698e+01 0 0 0
1411 0 1 0.0000000000000000e+00 1.4354057722496719e+01 1.6576472166579919e+00 2.3658651835938464e+01 0 0 0
1412 0 1 0.0000000000000000e+00 1.4354019851715544e+01 3.3151182460475406e+00 2.6005774406344834e+01 0 0 0
1211 0 1 0.0000000000000000e+00 1.2918700644089173e+01 7.4586832814980371e+00 2.1314224408696461e+01 0 0 0
1236 0 1 0.0000000000000000e+00 1.0047937308780273e+01 7.4586511597940346e+00 2.1314025520890830e+01 0 0 0
1338 0 1 0.0000000000000000e+00 1.4354031349216122e+01 6.6299677416649629e+00 2.3658631095589694e+01 0 0 0
1359 0 1 0.0000000000000000e+00 8.6125333405775315e+00 6.6298553771976136e+00 2.3658114387234892e+01 0 0 0
1362 0 1 0.0000000000000000e+00 1.1483288561689445e+01 6.6299495576539984e+00 2.3658402825704822e+01 0 0 0
1051 0 1 0.0000000000000000e+00 7.1771310237409880e+00 1.0773556417770994e+01 1.8970199512770467e+01 0 0 0
1072 0 1 0.0000000000000000e+00 4.3063418129468589e+00 1.0773573063729952e+01 1.8970281739994540e+01 0 0 0
1073 0 1 0.0000000000000000e+00 1.4355890000514655e+00 1.0773574331788220e+01 1.8970369812506597e+01 0 0 0
1231 0 1 0.0000000000000000e+00 5.7417462361580629e+00 8.2873958786151416e+00 1.8970205851354599e+01 0 0 0
1252 0 1 0.0000000000000000e+00 2.8709873577892746e+00 8.2874099839999023e+00 1.8970333205478646e+01 0 0 0
1076 0 1 0.0000000000000000e+00 7.1771247389473452e+00 1.2430982767635461e+01 2.1314251637339680e+01 0 0 0
1077 0 1 0.0000000000000000e+00 4.3063281889219001e+00 1.2431015171339704e+01 2.1314317482175301e+01 0 0 0