ITEM: TIMESTEP
0
ITEM: NUMBER OF ATOMS
64
ITEM: BOX BOUNDS pp pp pp
-5.64 5.64
-5.64 5.64
-5.64 5.64
ITEM: ATOMS id type q x y z f_ct 
57 1 -0.5 -4.94 -4.94 -4.94 0 
58 1 -0.5 -2.12 -2.12 -4.94 0 
59 1 -0.5 -4.94 -2.12 -2.12 0 
60 1 -0.5 -2.12 -4.94 -2.12 0 
61 2 0.5 -2.12 -2.12 -2.12 0 
62 2 0.5 -4.94 -4.94 -2.12 0 
63 2 0.5 -4.94 -2.12 -4.94 0 
64 2 0.5 -2.12 -4.94 -4.94 0 
25 1 -0.5 0.7 -4.94 -4.94 0 
26 1 -0.5 3.52 -2.12 -4.94 0 
27 1 -0.5 0.7 -2.12 -2.12 0 
28 1 -0.5 3.52 -4.94 -2.12 0 
29 2 0.5 3.52 -2.12 -2.12 0 
30 2 0.5 0.7 -4.94 -2.12 0 
31 2 0.5 0.7 -2.12 -4.94 0 
32 2 0.5 3.52 -4.94 -4.94 0 
41 1 -0.5 -4.94 0.7 -4.94 0 
42 1 -0.5 -2.12 3.52 -4.94 0 
43 1 -0.5 -4.94 3.52 -2.12 0 
44 1 -0.5 -2.12 0.7 -2.12 0 
45 2 0.5 -2.12 3.52 -2.12 0 
46 2 0.5 -4.94 0.7 -2.12 0 
47 2 0.5 -4.94 3.52 -4.94 0 
48 2 0.5 -2.12 0.7 -4.94 0 
9 1 -0.5 0.7 0.7 -4.94 0 
10 1 -0.5 3.52 3.52 -4.94 0 
11 1 -0.5 0.7 3.52 -2.12 0 
12 1 -0.5 3.52 0.7 -2.12 0 
13 2 0.5 3.52 3.52 -2.12 0 
14 2 0.5 0.7 0.7 -2.12 0 
15 2 0.5 0.7 3.52 -4.94 0 
16 2 0.5 3.52 0.7 -4.94 0 
49 1 -0.5 -4.94 -4.94 0.7 0 
50 1 -0.5 -2.12 -2.12 0.7 0 
51 1 -0.5 -4.94 -2.12 3.52 0 
52 1 -0.5 -2.12 -4.94 3.52 0 
53 2 0.5 -2.12 -2.12 3.52 0 
54 2 0.5 -4.94 -4.94 3.52 0 
55 2 0.5 -4.94 -2.12 0.7 0 
56 2 0.5 -2.12 -4.94 0.7 0 
17 1 -0.5 0.7 -4.94 0.7 0 
18 1 -0.5 3.52 -2.12 0.7 0 
19 1 -0.5 0.7 -2.12 3.52 0 
20 1 -0.5 3.52 -4.94 3.52 0 
21 2 0.5 3.52 -2.12 3.52 0 
22 2 0.5 0.7 -4.94 3.52 0 
23 2 0.5 0.7 -2.12 0.7 0 
24 2 0.5 3.52 -4.94 0.7 0 
33 1 -0.5 -4.94 0.7 0.7 0 
34 1 -0.5 -2.12 3.52 0.7 0 
35 1 -0.5 -4.94 3.52 3.52 0 
36 1 -0.5 -2.12 0.7 3.52 0 
37 2 0.5 -2.12 3.52 3.52 0 
38 2 0.5 -4.94 0.7 3.52 0 
39 2 0.5 -4.94 3.52 0.7 0 
40 2 0.5 -2.12 0.7 0.7 0 
1 1 -0.5 0.7 0.7 0.7 0 
2 1 -0.5 3.52 3.52 0.7 0 
3 1 -0.5 0.7 3.52 3.52 0 
4 1 -0.5 3.52 0.7 3.52 0 
5 2 0.5 3.52 3.52 3.52 0 
6 2 0.5 0.7 0.7 3.52 0 
7 2 0.5 0.7 3.52 0.7 0 
8 2 0.5 3.52 0.7 0.7 0 
ITEM: TIMESTEP
1
ITEM: NUMBER OF ATOMS
64
ITEM: BOX BOUNDS pp pp pp
-5.64 5.64
-5.64 5.64
-5.64 5.64
ITEM: ATOMS id type q x y z f_ct 
57 1 0.765439 -4.94 -4.94 -4.94 -6.65918 
58 1 0.893343 -2.12 -2.12 -4.94 -7.93698 
59 1 1.09435 -4.94 -2.12 -2.12 -9.94801 
60 1 0.956037 -2.12 -4.94 -2.12 -8.56358 
61 2 -0.959886 -2.12 -2.12 -2.12 8.42594 
62 2 -0.986096 -4.94 -4.94 -2.12 8.68943 
63 2 -0.945719 -4.94 -2.12 -4.94 8.28565 
64 2 -0.822429 -2.12 -4.94 -4.94 7.05149 
25 1 0.772905 0.7 -4.94 -4.94 -6.73355 
26 1 0.430005 3.52 -2.12 -4.94 -3.30506 
27 1 0.90884 0.7 -2.12 -2.12 -8.09343 
28 1 0.416715 3.52 -4.94 -2.12 -3.1717 
29 2 -0.503162 3.52 -2.12 -2.12 3.86017 
30 2 -0.897161 0.7 -4.94 -2.12 7.79983 
31 2 -0.842472 0.7 -2.12 -4.94 7.25298 
32 2 -0.324305 3.52 -4.94 -4.94 2.07106 
41 1 0.749056 -4.94 0.7 -4.94 -6.49515 
42 1 0.539257 -2.12 3.52 -4.94 -4.39721 
43 1 0.66056 -4.94 3.52 -2.12 -5.60926 
44 1 0.871086 -2.12 0.7 -2.12 -7.71486 
45 2 -0.643971 -2.12 3.52 -2.12 5.26781 
46 2 -0.829101 -4.94 0.7 -2.12 7.11902 
47 2 -0.499083 -4.94 3.52 -4.94 3.81842 
48 2 -0.826744 -2.12 0.7 -4.94 7.09475 
9 1 0.77308 0.7 0.7 -4.94 -6.73502 
10 1 0.251143 3.52 3.52 -4.94 -1.51594 
11 1 0.591191 0.7 3.52 -2.12 -4.91557 
12 1 0.24876 3.52 0.7 -2.12 -1.49232 
13 2 -0.337079 3.52 3.52 -2.12 2.19876 
14 2 -0.822732 0.7 0.7 -2.12 7.05555 
15 2 -0.500618 0.7 3.52 -4.94 3.83397 
16 2 -0.239415 3.52 0.7 -4.94 1.22257 
49 1 0.76389 -4.94 -4.94 0.7 -6.64345 
50 1 0.894768 -2.12 -2.12 0.7 -7.95128 
51 1 0.707324 -4.94 -2.12 3.52 -6.07748 
52 1 0.607355 -2.12 -4.94 3.52 -5.0776 
53 2 -0.66939 -2.12 -2.12 3.52 5.52139 
54 2 -0.559747 -4.94 -4.94 3.52 4.42562 
55 2 -0.94237 -4.94 -2.12 0.7 8.2516 
56 2 -0.830151 -2.12 -4.94 0.7 7.12847 
17 1 0.772899 0.7 -4.94 0.7 -6.73321 
18 1 0.391841 3.52 -2.12 0.7 -2.92334 
19 1 0.629052 0.7 -2.12 3.52 -5.29464 
20 1 0.227817 3.52 -4.94 3.52 -1.28238 
21 2 -0.330894 3.52 -2.12 3.52 2.13726 
22 2 -0.571573 0.7 -4.94 3.52 4.54374 
23 2 -0.842592 0.7 -2.12 0.7 7.25426 
24 2 -0.280087 3.52 -4.94 0.7 1.62898 
33 1 0.734223 -4.94 0.7 0.7 -6.34639 
34 1 0.526399 -2.12 3.52 0.7 -4.26846 
35 1 0.358432 -4.94 3.52 3.52 -2.5883 
36 1 0.61457 -2.12 0.7 3.52 -5.14952 
37 2 -0.40585 -2.12 3.52 3.52 2.88688 
38 2 -0.564932 -4.94 0.7 3.52 4.47725 
39 2 -0.474081 -4.94 3.52 0.7 3.56823 
40 2 -0.827592 -2.12 0.7 0.7 7.10357 
1 1 0.771087 0.7 0.7 0.7 -6.71489 
2 1 0.236436 3.52 3.52 0.7 -1.36882 
3 1 0.368322 0.7 3.52 3.52 -2.68735 
4 1 0.184483 3.52 0.7 3.52 -0.849413 
5 2 -0.172672 3.52 3.52 3.52 0.554684 
6 2 -0.578052 0.7 0.7 3.52 4.60833 
7 2 -0.484232 0.7 3.52 0.7 3.66978 
8 2 -0.196474 3.52 0.7 0.7 0.79299 
ITEM: TIMESTEP
2
ITEM: NUMBER OF ATOMS
64
ITEM: BOX BOUNDS pp pp pp
-5.64 5.64
-5.64 5.64
-5.64 5.64
ITEM: ATOMS id type q x y z f_ct 
57 1 0.753998 -4.94 -4.94 -4.94 -6.52796 
58 1 0.884395 -2.12 -2.12 -4.94 -7.83121 
59 1 1.08678 -4.94 -2.12 -2.12 -9.85598 
60 1 0.955162 -2.12 -4.94 -2.12 -8.53871 
61 2 -0.967352 -2.12 -2.12 -2.12 8.5175 
62 2 -0.97729 -4.94 -4.94 -2.12 8.61756 
63 2 -0.92603 -4.94 -2.12 -4.94 8.10447 
64 2 -0.807938 -2.12 -4.94 -4.94 6.92273 
25 1 0.748506 0.7 -4.94 -4.94 -6.47283 
26 1 0.39441 3.52 -2.12 -4.94 -2.93216 
27 1 0.8997 0.7 -2.12 -2.12 -7.98459 
28 1 0.392107 3.52 -4.94 -2.12 -2.90907 
29 2 -0.474201 3.52 -2.12 -2.12 3.5862 
30 2 -0.884141 0.7 -4.94 -2.12 7.6857 
31 2 -0.821099 0.7 -2.12 -4.94 7.05491 
32 2 -0.29379 3.52 -4.94 -4.94 1.78232 
41 1 0.72917 -4.94 0.7 -4.94 -6.27988 
42 1 0.508997 -2.12 3.52 -4.94 -4.07767 
43 1 0.626591 -4.94 3.52 -2.12 -5.25414 
44 1 0.865517 -2.12 0.7 -2.12 -7.64278 
45 2 -0.618632 -2.12 3.52 -2.12 5.03027 
46 2 -0.82718 -4.94 0.7 -2.12 7.1163 
47 2 -0.468543 -4.94 3.52 -4.94 3.52977 
48 2 -0.805833 -2.12 0.7 -4.94 6.9023 
9 1 0.739229 0.7 0.7 -4.94 -6.38017 
10 1 0.212594 3.52 3.52 -4.94 -1.11428 
11 1 0.564132 0.7 3.52 -2.12 -4.62934 
12 1 0.230921 3.52 0.7 -2.12 -1.29702 
13 2 -0.297156 3.52 3.52 -2.12 1.81605 
14 2 -0.798785 0.7 0.7 -2.12 6.8322 
15 2 -0.468317 0.7 3.52 -4.94 3.5272 
16 2 -0.209846 3.52 0.7 -4.94 0.942579 
49 1 0.748336 -4.94 -4.94 0.7 -6.47146 
50 1 0.886814 -2.12 -2.12 0.7 -7.85584 
51 1 0.685336 -4.94 -2.12 3.52 -5.84155 
52 1 0.590876 -2.12 -4.94 3.52 -4.89642 
53 2 -0.658522 -2.12 -2.12 3.52 5.429 
54 2 -0.543669 -4.94 -4.94 3.52 4.28105 
55 2 -0.922606 -4.94 -2.12 0.7 8.07032 
56 2 -0.812389 -2.12 -4.94 0.7 6.96771 
17 1 0.745273 0.7 -4.94 0.7 -6.44065 
18 1 0.354218 3.52 -2.12 0.7 -2.53018 
19 1 0.60925 0.7 -2.12 3.52 -5.08045 
20 1 0.202915 3.52 -4.94 3.52 -1.01723 
21 2 -0.30081 3.52 -2.12 3.52 1.85251 
22 2 -0.547902 0.7 -4.94 3.52 4.32326 
23 2 -0.819829 0.7 -2.12 0.7 7.04222 
24 2 -0.248943 3.52 -4.94 0.7 1.33368 
33 1 0.714962 -4.94 0.7 0.7 -6.1378 
34 1 0.490363 -2.12 3.52 0.7 -3.89143 
35 1 0.331234 -4.94 3.52 3.52 -2.30045 
36 1 0.596926 -2.12 0.7 3.52 -4.95713 
37 2 -0.378975 -2.12 3.52 3.52 2.634 
38 2 -0.544226 -4.94 0.7 3.52 4.2868 
39 2 -0.43897 -4.94 3.52 0.7 3.23413 
40 2 -0.805185 -2.12 0.7 0.7 6.89599 
1 1 0.73369 0.7 0.7 0.7 -6.32489 
2 1 0.19285 3.52 3.52 0.7 -0.916636 
3 1 0.339917 0.7 3.52 3.52 -2.38701 
4 1 0.159819 3.52 0.7 3.52 -0.585953 
5 2 -0.141901 3.52 3.52 3.52 0.263481 
6 2 -0.550666 0.7 0.7 3.52 4.35101 
7 2 -0.448455 0.7 3.52 0.7 3.32883 
8 2 -0.165814 3.52 0.7 0.7 0.502115 
ITEM: TIMESTEP
3
ITEM: NUMBER OF ATOMS
64
ITEM: BOX BOUNDS pp pp pp
-5.64 5.64
-5.64 5.64
-5.64 5.64
ITEM: ATOMS id type q x y z f_ct 
57 1 0.753997 -4.94 -4.94 -4.94 -6.5267 
58 1 0.884182 -2.12 -2.12 -4.94 -7.82841 
59 1 1.08672 -4.94 -2.12 -2.12 -9.85472 
60 1 0.955046 -2.12 -4.94 -2.12 -8.53768 
61 2 -0.967479 -2.12 -2.12 -2.12 8.51913 
62 2 -0.977346 -4.94 -4.94 -2.12 8.61738 
63 2 -0.925713 -4.94 -2.12 -4.94 8.10148 
64 2 -0.807534 -2.12 -4.94 -4.94 6.91982 
25 1 0.748105 0.7 -4.94 -4.94 -6.46794 
26 1 0.393848 3.52 -2.12 -4.94 -2.92587 
27 1 0.899551 0.7 -2.12 -2.12 -7.9827 
28 1 0.391871 3.52 -4.94 -2.12 -2.90559 
29 2 -0.473794 3.52 -2.12 -2.12 3.58195 
30 2 -0.884005 0.7 -4.94 -2.12 7.68388 
31 2 -0.820706 0.7 -2.12 -4.94 7.051 
32 2 -0.293393 3.52 -4.94 -4.94 1.77773 
41 1 0.729029 -4.94 0.7 -4.94 -6.27733 
42 1 0.508483 -2.12 3.52 -4.94 -4.07176 
43 1 0.62609 -4.94 3.52 -2.12 -5.24775 
44 1 0.865455 -2.12 0.7 -2.12 -7.64178 
45 2 -0.618203 -2.12 3.52 -2.12 5.02596 
46 2 -0.827497 -4.94 0.7 -2.12 7.11904 
47 2 -0.46812 -4.94 3.52 -4.94 3.52491 
48 2 -0.805417 -2.12 0.7 -4.94 6.89851 
9 1 0.738639 0.7 0.7 -4.94 -6.37345 
10 1 0.211812 3.52 3.52 -4.94 -1.10567 
11 1 0.563767 0.7 3.52 -2.12 -4.62431 
12 1 0.230988 3.52 0.7 -2.12 -1.29643 
13 2 -0.296374 3.52 3.52 -2.12 1.808 
14 2 -0.798445 0.7 0.7 -2.12 6.82856 
15 2 -0.46781 0.7 3.52 -4.94 3.52167 
16 2 -0.209555 3.52 0.7 -4.94 0.939273 
49 1 0.748309 -4.94 -4.94 0.7 -6.47004 
50 1 0.886728 -2.12 -2.12 0.7 -7.85433 
51 1 0.684947 -4.94 -2.12 3.52 -5.83687 
52 1 0.590521 -2.12 -4.94 3.52 -4.89252 
53 2 -0.658299 -2.12 -2.12 3.52 5.4268 
54 2 -0.543513 -4.94 -4.94 3.52 4.27896 
55 2 -0.922392 -4.94 -2.12 0.7 8.06794 
56 2 -0.812051 -2.12 -4.94 0.7 6.9647 
17 1 0.744869 0.7 -4.94 0.7 -6.4356 
18 1 0.353666 3.52 -2.12 0.7 -2.52381 
19 1 0.608909 0.7 -2.12 3.52 -5.076 
20 1 0.202527 3.52 -4.94 3.52 -1.01205 
21 2 -0.300253 3.52 -2.12 3.52 1.84689 
22 2 -0.547508 0.7 -4.94 3.52 4.31915 
23 2 -0.819466 0.7 -2.12 0.7 7.03852 
24 2 -0.248538 3.52 -4.94 0.7 1.32927 
33 1 0.714898 -4.94 0.7 0.7 -6.13598 
34 1 0.489808 -2.12 3.52 0.7 -3.88501 
35 1 0.330802 -4.94 3.52 3.52 -2.29474 
36 1 0.596618 -2.12 0.7 3.52 -4.95331 
37 2 -0.37848 -2.12 3.52 3.52 2.62884 
38 2 -0.543969 -4.94 0.7 3.52 4.28384 
39 2 -0.438482 -4.94 3.52 0.7 3.22862 
40 2 -0.804834 -2.12 0.7 0.7 6.89247 
1 1 0.733085 0.7 0.7 0.7 -6.31786 
2 1 0.191903 3.52 3.52 0.7 -0.906536 
3 1 0.339416 0.7 3.52 3.52 -2.38085 
4 1 0.159449 3.52 0.7 3.52 -0.581247 
5 2 -0.141225 3.52 3.52 3.52 0.257028 
6 2 -0.550211 0.7 0.7 3.52 4.34614 
7 2 -0.447914 0.7 3.52 0.7 3.32277 
8 2 -0.165519 3.52 0.7 0.7 0.498743 
ITEM: TIMESTEP
4
ITEM: NUMBER OF ATOMS
64
ITEM: BOX BOUNDS pp pp pp
-5.64 5.64
-5.64 5.64
-5.64 5.64
ITEM: ATOMS id type q x y z f_ct 
57 1 0.753885 -4.94 -4.94 -4.94 -6.52611 
58 1 0.884099 -2.12 -2.12 -4.94 -7.82824 
59 1 1.08648 -4.94 -2.12 -2.12 -9.85226 
60 1 0.955174 -2.12 -4.94 -2.12 -8.53921 
61 2 -0.967381 -2.12 -2.12 -2.12 8.51805 
62 2 -0.977275 -4.94 -4.94 -2.12 8.61654 
63 2 -0.925772 -4.94 -2.12 -4.94 8.10191 
64 2 -0.807447 -2.12 -4.94 -4.94 6.91865 
25 1 0.74792 0.7 -4.94 -4.94 -6.46619 
26 1 0.393891 3.52 -2.12 -4.94 -2.92607 
27 1 0.899415 0.7 -2.12 -2.12 -7.98128 
28 1 0.391701 3.52 -4.94 -2.12 -2.9045 
29 2 -0.473691 3.52 -2.12 -2.12 3.58122 
30 2 -0.883767 0.7 -4.94 -2.12 7.68129 
31 2 -0.820574 0.7 -2.12 -4.94 7.04989 
32 2 -0.293392 3.52 -4.94 -4.94 1.77792 
41 1 0.728892 -4.94 0.7 -4.94 -6.27618 
42 1 0.508254 -2.12 3.52 -4.94 -4.0697 
43 1 0.625801 -4.94 3.52 -2.12 -5.24463 
44 1 0.865497 -2.12 0.7 -2.12 -7.64277 
45 2 -0.618207 -2.12 3.52 -2.12 5.02561 
46 2 -0.827461 -4.94 0.7 -2.12 7.1186 
47 2 -0.467826 -4.94 3.52 -4.94 3.52233 
48 2 -0.805307 -2.12 0.7 -4.94 6.89695 
9 1 0.738432 0.7 0.7 -4.94 -6.37145 
10 1 0.211881 3.52 3.52 -4.94 -1.10609 
11 1 0.56343 0.7 3.52 -2.12 -4.62101 
12 1 0.230967 3.52 0.7 -2.12 -1.29729 
13 2 -0.296072 3.52 3.52 -2.12 1.80501 
14 2 -0.798431 0.7 0.7 -2.12 6.82807 
15 2 -0.467409 0.7 3.52 -4.94 3.51805 
16 2 -0.209495 3.52 0.7 -4.94 0.939112 
49 1 0.748214 -4.94 -4.94 0.7 -6.46936 
50 1 0.886653 -2.12 -2.12 0.7 -7.85383 
51 1 0.68489 -4.94 -2.12 3.52 -5.83556 
52 1 0.590352 -2.12 -4.94 3.52 -4.89104 
53 2 -0.658125 -2.12 -2.12 3.52 5.42538 
54 2 -0.54341 -4.94 -4.94 3.52 4.27793 
55 2 -0.922363 -4.94 -2.12 0.7 8.06808 
56 2 -0.812004 -2.12 -4.94 0.7 6.96398 
17 1 0.744678 0.7 -4.94 0.7 -6.43377 
18 1 0.353766 3.52 -2.12 0.7 -2.52502 
19 1 0.608913 0.7 -2.12 3.52 -5.07616 
20 1 0.201823 3.52 -4.94 3.52 -1.00547 
21 2 -0.299904 3.52 -2.12 3.52 1.84288 
22 2 -0.547517 0.7 -4.94 3.52 4.31909 
23 2 -0.819297 0.7 -2.12 0.7 7.03716 
24 2 -0.248626 3.52 -4.94 0.7 1.33041 
33 1 0.714786 -4.94 0.7 0.7 -6.1351 
34 1 0.48945 -2.12 3.52 0.7 -3.88126 
35 1 0.331013 -4.94 3.52 3.52 -2.29761 
36 1 0.596456 -2.12 0.7 3.52 -4.95216 
37 2 -0.378587 -2.12 3.52 3.52 2.63035 
38 2 -0.543895 -4.94 0.7 3.52 4.28302 
39 2 -0.437941 -4.94 3.52 0.7 3.22336 
40 2 -0.804774 -2.12 0.7 0.7 6.89145 
1 1 0.732862 0.7 0.7 0.7 -6.31577 
2 1 0.191917 3.52 3.52 0.7 -0.906488 
3 1 0.339789 0.7 3.52 3.52 -2.38535 
4 1 0.159053 3.52 0.7 3.52 -0.57775 
5 2 -0.141266 3.52 3.52 3.52 0.257013 
6 2 -0.550191 0.7 0.7 3.52 4.34618 
7 2 -0.447307 0.7 3.52 0.7 3.31694 
8 2 -0.165617 3.52 0.7 0.7 0.50032 
ITEM: TIMESTEP
5
ITEM: NUMBER OF ATOMS
64
ITEM: BOX BOUNDS pp pp pp
-5.64 5.64
-5.64 5.64
-5.64 5.64
ITEM: ATOMS id type q x y z f_ct 
57 1 0.753885 -4.94 -4.94 -4.94 -6.52611 
58 1 0.884099 -2.12 -2.12 -4.94 -7.82824 
59 1 1.08648 -4.94 -2.12 -2.12 -9.85226 
60 1 0.955174 -2.12 -4.94 -2.12 -8.53921 
61 2 -0.967381 -2.12 -2.12 -2.12 8.51805 
62 2 -0.977275 -4.94 -4.94 -2.12 8.61654 
63 2 -0.925772 -4.94 -2.12 -4.94 8.10191 
64 2 -0.807447 -2.12 -4.94 -4.94 6.91865 
25 1 0.74792 0.7 -4.94 -4.94 -6.46619 
26 1 0.393891 3.52 -2.12 -4.94 -2.92607 
27 1 0.899415 0.7 -2.12 -2.12 -7.98128 
28 1 0.391701 3.52 -4.94 -2.12 -2.9045 
29 2 -0.473691 3.52 -2.12 -2.12 3.58122 
30 2 -0.883767 0.7 -4.94 -2.12 7.68129 
31 2 -0.820574 0.7 -2.12 -4.94 7.04989 
32 2 -0.293392 3.52 -4.94 -4.94 1.77792 
41 1 0.728892 -4.94 0.7 -4.94 -6.27618 
42 1 0.508254 -2.12 3.52 -4.94 -4.0697 
43 1 0.625801 -4.94 3.52 -2.12 -5.24463 
44 1 0.865497 -2.12 0.7 -2.12 -7.64277 
45 2 -0.618207 -2.12 3.52 -2.12 5.02561 
46 2 -0.827461 -4.94 0.7 -2.12 7.1186 
47 2 -0.467826 -4.94 3.52 -4.94 3.52233 
48 2 -0.805307 -2.12 0.7 -4.94 6.89695 
9 1 0.738432 0.7 0.7 -4.94 -6.37145 
10 1 0.211881 3.52 3.52 -4.94 -1.10609 
11 1 0.56343 0.7 3.52 -2.12 -4.62101 
12 1 0.230967 3.52 0.7 -2.12 -1.29729 
13 2 -0.296072 3.52 3.52 -2.12 1.80501 
14 2 -0.798431 0.7 0.7 -2.12 6.82807 
15 2 -0.467409 0.7 3.52 -4.94 3.51805 
16 2 -0.209495 3.52 0.7 -4.94 0.939112 
49 1 0.748214 -4.94 -4.94 0.7 -6.46936 
50 1 0.886653 -2.12 -2.12 0.7 -7.85383 
51 1 0.68489 -4.94 -2.12 3.52 -5.83556 
52 1 0.590352 -2.12 -4.94 3.52 -4.89104 
53 2 -0.658125 -2.12 -2.12 3.52 5.42538 
54 2 -0.54341 -4.94 -4.94 3.52 4.27793 
55 2 -0.922363 -4.94 -2.12 0.7 8.06808 
56 2 -0.812004 -2.12 -4.94 0.7 6.96398 
17 1 0.744678 0.7 -4.94 0.7 -6.43377 
18 1 0.353766 3.52 -2.12 0.7 -2.52502 
19 1 0.608913 0.7 -2.12 3.52 -5.07616 
20 1 0.201823 3.52 -4.94 3.52 -1.00547 
21 2 -0.299904 3.52 -2.12 3.52 1.84288 
22 2 -0.547517 0.7 -4.94 3.52 4.31909 
23 2 -0.819297 0.7 -2.12 0.7 7.03716 
24 2 -0.248626 3.52 -4.94 0.7 1.33041 
33 1 0.714786 -4.94 0.7 0.7 -6.1351 
34 1 0.48945 -2.12 3.52 0.7 -3.88126 
35 1 0.331013 -4.94 3.52 3.52 -2.29761 
36 1 0.596456 -2.12 0.7 3.52 -4.95216 
37 2 -0.378587 -2.12 3.52 3.52 2.63035 
38 2 -0.543895 -4.94 0.7 3.52 4.28302 
39 2 -0.437941 -4.94 3.52 0.7 3.22336 
40 2 -0.804774 -2.12 0.7 0.7 6.89145 
1 1 0.732862 0.7 0.7 0.7 -6.31577 
2 1 0.191917 3.52 3.52 0.7 -0.906488 
3 1 0.339789 0.7 3.52 3.52 -2.38535 
4 1 0.159053 3.52 0.7 3.52 -0.57775 
5 2 -0.141266 3.52 3.52 3.52 0.257013 
6 2 -0.550191 0.7 0.7 3.52 4.34618 
7 2 -0.447307 0.7 3.52 0.7 3.31694 
8 2 -0.165617 3.52 0.7 0.7 0.50032 
ITEM: TIMESTEP
6
ITEM: NUMBER OF ATOMS
64
ITEM: BOX BOUNDS pp pp pp
-5.64 5.64
-5.64 5.64
-5.64 5.64
ITEM: ATOMS id type q x y z f_ct 
57 1 0.753885 -4.94 -4.94 -4.94 -6.52611 
58 1 0.884099 -2.12 -2.12 -4.94 -7.82824 
59 1 1.08648 -4.94 -2.12 -2.12 -9.85226 
60 1 0.955174 -2.12 -4.94 -2.12 -8.53921 
61 2 -0.967381 -2.12 -2.12 -2.12 8.51805 
62 2 -0.977275 -4.94 -4.94 -2.12 8.61654 
63 2 -0.925772 -4.94 -2.12 -4.94 8.10191 
64 2 -0.807447 -2.12 -4.94 -4.94 6.91865 
25 1 0.74792 0.7 -4.94 -4.94 -6.46619 
26 1 0.393891 3.52 -2.12 -4.94 -2.92607 
27 1 0.899415 0.7 -2.12 -2.12 -7.98128 
28 1 0.391701 3.52 -4.94 -2.12 -2.9045 
29 2 -0.473691 3.52 -2.12 -2.12 3.58122 
30 2 -0.883767 0.7 -4.94 -2.12 7.68129 
31 2 -0.820574 0.7 -2.12 -4.94 7.04989 
32 2 -0.293392 3.52 -4.94 -4.94 1.77792 
41 1 0.728892 -4.94 0.7 -4.94 -6.27618 
42 1 0.508254 -2.12 3.52 -4.94 -4.0697 
43 1 0.625801 -4.94 3.52 -2.12 -5.24463 
44 1 0.865497 -2.12 0.7 -2.12 -7.64277 
45 2 -0.618207 -2.12 3.52 -2.12 5.02561 
46 2 -0.827461 -4.94 0.7 -2.12 7.1186 
47 2 -0.467826 -4.94 3.52 -4.94 3.52233 
48 2 -0.805307 -2.12 0.7 -4.94 6.89695 
9 1 0.738432 0.7 0.7 -4.94 -6.37145 
10 1 0.211881 3.52 3.52 -4.94 -1.10609 
11 1 0.56343 0.7 3.52 -2.12 -4.62101 
12 1 0.230967 3.52 0.7 -2.12 -1.29729 
13 2 -0.296072 3.52 3.52 -2.12 1.80501 
14 2 -0.798431 0.7 0.7 -2.12 6.82807 
15 2 -0.467409 0.7 3.52 -4.94 3.51805 
16 2 -0.209495 3.52 0.7 -4.94 0.939112 
49 1 0.748214 -4.94 -4.94 0.7 -6.46936 
50 1 0.886653 -2.12 -2.12 0.7 -7.85383 
51 1 0.68489 -4.94 -2.12 3.52 -5.83556 
52 1 0.590352 -2.12 -4.94 3.52 -4.89104 
53 2 -0.658125 -2.12 -2.12 3.52 5.42538 
54 2 -0.54341 -4.94 -4.94 3.52 4.27793 
55 2 -0.922363 -4.94 -2.12 0.7 8.06808 
56 2 -0.812004 -2.12 -4.94 0.7 6.96398 
17 1 0.744678 0.7 -4.94 0.7 -6.43377 
18 1 0.353766 3.52 -2.12 0.7 -2.52502 
19 1 0.608913 0.7 -2.12 3.52 -5.07616 
20 1 0.201823 3.52 -4.94 3.52 -1.00547 
21 2 -0.299904 3.52 -2.12 3.52 1.84288 
22 2 -0.547517 0.7 -4.94 3.52 4.31909 
23 2 -0.819297 0.7 -2.12 0.7 7.03716 
24 2 -0.248626 3.52 -4.94 0.7 1.33041 
33 1 0.714786 -4.94 0.7 0.7 -6.1351 
34 1 0.48945 -2.12 3.52 0.7 -3.88126 
35 1 0.331013 -4.94 3.52 3.52 -2.29761 
36 1 0.596456 -2.12 0.7 3.52 -4.95216 
37 2 -0.378587 -2.12 3.52 3.52 2.63035 
38 2 -0.543895 -4.94 0.7 3.52 4.28302 
39 2 -0.437941 -4.94 3.52 0.7 3.22336 
40 2 -0.804774 -2.12 0.7 0.7 6.89145 
1 1 0.732862 0.7 0.7 0.7 -6.31577 
2 1 0.191917 3.52 3.52 0.7 -0.906488 
3 1 0.339789 0.7 3.52 3.52 -2.38535 
4 1 0.159053 3.52 0.7 3.52 -0.57775 
5 2 -0.141266 3.52 3.52 3.52 0.257013 
6 2 -0.550191 0.7 0.7 3.52 4.34618 
7 2 -0.447307 0.7 3.52 0.7 3.31694 
8 2 -0.165617 3.52 0.7 0.7 0.50032 
ITEM: TIMESTEP
7
ITEM: NUMBER OF ATOMS
64
ITEM: BOX BOUNDS pp pp pp
-5.64 5.64
-5.64 5.64
-5.64 5.64
ITEM: ATOMS id type q x y z f_ct 
57 1 0.753885 -4.94 -4.94 -4.94 -6.52611 
58 1 0.884099 -2.12 -2.12 -4.94 -7.82824 
59 1 1.08648 -4.94 -2.12 -2.12 -9.85226 
60 1 0.955174 -2.12 -4.94 -2.12 -8.53921 
61 2 -0.967381 -2.12 -2.12 -2.12 8.51805 
62 2 -0.977275 -4.94 -4.94 -2.12 8.61654 
63 2 -0.925772 -4.94 -2.12 -4.94 8.10191 
64 2 -0.807447 -2.12 -4.94 -4.94 6.91865 
25 1 0.74792 0.7 -4.94 -4.94 -6.46619 
26 1 0.393891 3.52 -2.12 -4.94 -2.92607 
27 1 0.899415 0.7 -2.12 -2.12 -7.98128 
28 1 0.391701 3.52 -4.94 -2.12 -2.9045 
29 2 -0.473691 3.52 -2.12 -2.12 3.58122 
30 2 -0.883767 0.7 -4.94 -2.12 7.68129 
31 2 -0.820574 0.7 -2.12 -4.94 7.04989 
32 2 -0.293392 3.52 -4.94 -4.94 1.77792 
41 1 0.728892 -4.94 0.7 -4.94 -6.27618 
42 1 0.508254 -2.12 3.52 -4.94 -4.0697 
43 1 0.625801 -4.94 3.52 -2.12 -5.24463 
44 1 0.865497 -2.12 0.7 -2.12 -7.64277 
45 2 -0.618207 -2.12 3.52 -2.12 5.02561 
46 2 -0.827461 -4.94 0.7 -2.12 7.1186 
47 2 -0.467826 -4.94 3.52 -4.94 3.52233 
48 2 -0.805307 -2.12 0.7 -4.94 6.89695 
9 1 0.738432 0.7 0.7 -4.94 -6.37145 
10 1 0.211881 3.52 3.52 -4.94 -1.10609 
11 1 0.56343 0.7 3.52 -2.12 -4.62101 
12 1 0.230967 3.52 0.7 -2.12 -1.29729 
13 2 -0.296072 3.52 3.52 -2.12 1.80501 
14 2 -0.798431 0.7 0.7 -2.12 6.82807 
15 2 -0.467409 0.7 3.52 -4.94 3.51805 
16 2 -0.209495 3.52 0.7 -4.94 0.939112 
49 1 0.748214 -4.94 -4.94 0.7 -6.46936 
50 1 0.886653 -2.12 -2.12 0.7 -7.85383 
51 1 0.68489 -4.94 -2.12 3.52 -5.83556 
52 1 0.590352 -2.12 -4.94 3.52 -4.89104 
53 2 -0.658125 -2.12 -2.12 3.52 5.42538 
54 2 -0.54341 -4.94 -4.94 3.52 4.27793 
55 2 -0.922363 -4.94 -2.12 0.7 8.06808 
56 2 -0.812004 -2.12 -4.94 0.7 6.96398 
17 1 0.744678 0.7 -4.94 0.7 -6.43377 
18 1 0.353766 3.52 -2.12 0.7 -2.52502 
19 1 0.608913 0.7 -2.12 3.52 -5.07616 
20 1 0.201823 3.52 -4.94 3.52 -1.00547 
21 2 -0.299904 3.52 -2.12 3.52 1.84288 
22 2 -0.547517 0.7 -4.94 3.52 4.31909 
23 2 -0.819297 0.7 -2.12 0.7 7.03716 
24 2 -0.248626 3.52 -4.94 0.7 1.33041 
33 1 0.714786 -4.94 0.7 0.7 -6.1351 
34 1 0.48945 -2.12 3.52 0.7 -3.88126 
35 1 0.331013 -4.94 3.52 3.52 -2.29761 
36 1 0.596456 -2.12 0.7 3.52 -4.95216 
37 2 -0.378587 -2.12 3.52 3.52 2.63035 
38 2 -0.543895 -4.94 0.7 3.52 4.28302 
39 2 -0.437941 -4.94 3.52 0.7 3.22336 
40 2 -0.804774 -2.12 0.7 0.7 6.89145 
1 1 0.732862 0.7 0.7 0.7 -6.31577 
2 1 0.191917 3.52 3.52 0.7 -0.906488 
3 1 0.339789 0.7 3.52 3.52 -2.38535 
4 1 0.159053 3.52 0.7 3.52 -0.57775 
5 2 -0.141266 3.52 3.52 3.52 0.257013 
6 2 -0.550191 0.7 0.7 3.52 4.34618 
7 2 -0.447307 0.7 3.52 0.7 3.31694 
8 2 -0.165617 3.52 0.7 0.7 0.50032 
ITEM: TIMESTEP
8
ITEM: NUMBER OF ATOMS
64
ITEM: BOX BOUNDS pp pp pp
-5.64 5.64
-5.64 5.64
-5.64 5.64
ITEM: ATOMS id type q x y z f_ct 
57 1 0.753885 -4.94 -4.94 -4.94 -6.52611 
58 1 0.884099 -2.12 -2.12 -4.94 -7.82824 
59 1 1.08648 -4.94 -2.12 -2.12 -9.85226 
60 1 0.955174 -2.12 -4.94 -2.12 -8.53921 
61 2 -0.967381 -2.12 -2.12 -2.12 8.51805 
62 2 -0.977275 -4.94 -4.94 -2.12 8.61654 
63 2 -0.925772 -4.94 -2.12 -4.94 8.10191 
64 2 -0.807447 -2.12 -4.94 -4.94 6.91865 
25 1 0.74792 0.7 -4.94 -4.94 -6.46619 
26 1 0.393891 3.52 -2.12 -4.94 -2.92607 
27 1 0.899415 0.7 -2.12 -2.12 -7.98128 
28 1 0.391701 3.52 -4.94 -2.12 -2.9045 
29 2 -0.473691 3.52 -2.12 -2.12 3.58122 
30 2 -0.883767 0.7 -4.94 -2.12 7.68129 
31 2 -0.820574 0.7 -2.12 -4.94 7.04989 
32 2 -0.293392 3.52 -4.94 -4.94 1.77792 
41 1 0.728892 -4.94 0.7 -4.94 -6.27618 
42 1 0.508254 -2.12 3.52 -4.94 -4.0697 
43 1 0.625801 -4.94 3.52 -2.12 -5.24463 
44 1 0.865497 -2.12 0.7 -2.12 -7.64277 
45 2 -0.618207 -2.12 3.52 -2.12 5.02561 
46 2 -0.827461 -4.94 0.7 -2.12 7.1186 
47 2 -0.467826 -4.94 3.52 -4.94 3.52233 
48 2 -0.805307 -2.12 0.7 -4.94 6.89695 
9 1 0.738432 0.7 0.7 -4.94 -6.37145 
10 1 0.211881 3.52 3.52 -4.94 -1.10609 
11 1 0.56343 0.7 3.52 -2.12 -4.62101 
12 1 0.230967 3.52 0.7 -2.12 -1.29729 
13 2 -0.296072 3.52 3.52 -2.12 1.80501 
14 2 -0.798431 0.7 0.7 -2.12 6.82807 
15 2 -0.467409 0.7 3.52 -4.94 3.51805 
16 2 -0.209495 3.52 0.7 -4.94 0.939112 
49 1 0.748214 -4.94 -4.94 0.7 -6.46936 
50 1 0.886653 -2.12 -2.12 0.7 -7.85383 
51 1 0.68489 -4.94 -2.12 3.52 -5.83556 
52 1 0.590352 -2.12 -4.94 3.52 -4.89104 
53 2 -0.658125 -2.12 -2.12 3.52 5.42538 
54 2 -0.54341 -4.94 -4.94 3.52 4.27793 
55 2 -0.922363 -4.94 -2.12 0.7 8.06808 
56 2 -0.812004 -2.12 -4.94 0.7 6.96398 
17 1 0.744678 0.7 -4.94 0.7 -6.43377 
18 1 0.353766 3.52 -2.12 0.7 -2.52502 
19 1 0.608913 0.7 -2.12 3.52 -5.07616 
20 1 0.201823 3.52 -4.94 3.52 -1.00547 
21 2 -0.299904 3.52 -2.12 3.52 1.84288 
22 2 -0.547517 0.7 -4.94 3.52 4.31909 
23 2 -0.819297 0.7 -2.12 0.7 7.03716 
24 2 -0.248626 3.52 -4.94 0.7 1.33041 
33 1 0.714786 -4.94 0.7 0.7 -6.1351 
34 1 0.48945 -2.12 3.52 0.7 -3.88126 
35 1 0.331013 -4.94 3.52 3.52 -2.29761 
36 1 0.596456 -2.12 0.7 3.52 -4.95216 
37 2 -0.378587 -2.12 3.52 3.52 2.63035 
38 2 -0.543895 -4.94 0.7 3.52 4.28302 
39 2 -0.437941 -4.94 3.52 0.7 3.22336 
40 2 -0.804774 -2.12 0.7 0.7 6.89145 
1 1 0.732862 0.7 0.7 0.7 -6.31577 
2 1 0.191917 3.52 3.52 0.7 -0.906488 
3 1 0.339789 0.7 3.52 3.52 -2.38535 
4 1 0.159053 3.52 0.7 3.52 -0.57775 
5 2 -0.141266 3.52 3.52 3.52 0.257013 
6 2 -0.550191 0.7 0.7 3.52 4.34618 
7 2 -0.447307 0.7 3.52 0.7 3.31694 
8 2 -0.165617 3.52 0.7 0.7 0.50032 
ITEM: TIMESTEP
9
ITEM: NUMBER OF ATOMS
64
ITEM: BOX BOUNDS pp pp pp
-5.64 5.64
-5.64 5.64
-5.64 5.64
ITEM: ATOMS id type q x y z f_ct 
57 1 0.753885 -4.94 -4.94 -4.94 -6.52611 
58 1 0.884099 -2.12 -2.12 -4.94 -7.82824 
59 1 1.08648 -4.94 -2.12 -2.12 -9.85226 
60 1 0.955174 -2.12 -4.94 -2.12 -8.53921 
61 2 -0.967381 -2.12 -2.12 -2.12 8.51805 
62 2 -0.977275 -4.94 -4.94 -2.12 8.61654 
63 2 -0.925772 -4.94 -2.12 -4.94 8.10191 
64 2 -0.807447 -2.12 -4.94 -4.94 6.91865 
25 1 0.74792 0.7 -4.94 -4.94 -6.46619 
26 1 0.393891 3.52 -2.12 -4.94 -2.92607 
27 1 0.899415 0.7 -2.12 -2.12 -7.98128 
28 1 0.391701 3.52 -4.94 -2.12 -2.9045 
29 2 -0.473691 3.52 -2.12 -2.12 3.58122 
30 2 -0.883767 0.7 -4.94 -2.12 7.68129 
31 2 -0.820574 0.7 -2.12 -4.94 7.04989 
32 2 -0.293392 3.52 -4.94 -4.94 1.77792 
41 1 0.728892 -4.94 0.7 -4.94 -6.27618 
42 1 0.508254 -2.12 3.52 -4.94 -4.0697 
43 1 0.625801 -4.94 3.52 -2.12 -5.24463 
44 1 0.865497 -2.12 0.7 -2.12 -7.64277 
45 2 -0.618207 -2.12 3.52 -2.12 5.02561 
46 2 -0.827461 -4.94 0.7 -2.12 7.1186 
47 2 -0.467826 -4.94 3.52 -4.94 3.52233 
48 2 -0.805307 -2.12 0.7 -4.94 6.89695 
9 1 0.738432 0.7 0.7 -4.94 -6.37145 
10 1 0.211881 3.52 3.52 -4.94 -1.10609 
11 1 0.56343 0.7 3.52 -2.12 -4.62101 
12 1 0.230967 3.52 0.7 -2.12 -1.29729 
13 2 -0.296072 3.52 3.52 -2.12 1.80501 
14 2 -0.798431 0.7 0.7 -2.12 6.82807 
15 2 -0.467409 0.7 3.52 -4.94 3.51805 
16 2 -0.209495 3.52 0.7 -4.94 0.939112 
49 1 0.748214 -4.94 -4.94 0.7 -6.46936 
50 1 0.886653 -2.12 -2.12 0.7 -7.85383 
51 1 0.68489 -4.94 -2.12 3.52 -5.83556 
52 1 0.590352 -2.12 -4.94 3.52 -4.89104 
53 2 -0.658125 -2.12 -2.12 3.52 5.42538 
54 2 -0.54341 -4.94 -4.94 3.52 4.27793 
55 2 -0.922363 -4.94 -2.12 0.7 8.06808 
56 2 -0.812004 -2.12 -4.94 0.7 6.96398 
17 1 0.744678 0.7 -4.94 0.7 -6.43377 
18 1 0.353766 3.52 -2.12 0.7 -2.52502 
19 1 0.608913 0.7 -2.12 3.52 -5.07616 
20 1 0.201823 3.52 -4.94 3.52 -1.00547 
21 2 -0.299904 3.52 -2.12 3.52 1.84288 
22 2 -0.547517 0.7 -4.94 3.52 4.31909 
23 2 -0.819297 0.7 -2.12 0.7 7.03716 
24 2 -0.248626 3.52 -4.94 0.7 1.33041 
33 1 0.714786 -4.94 0.7 0.7 -6.1351 
34 1 0.48945 -2.12 3.52 0.7 -3.88126 
35 1 0.331013 -4.94 3.52 3.52 -2.29761 
36 1 0.596456 -2.12 0.7 3.52 -4.95216 
37 2 -0.378587 -2.12 3.52 3.52 2.63035 
38 2 -0.543895 -4.94 0.7 3.52 4.28302 
39 2 -0.437941 -4.94 3.52 0.7 3.22336 
40 2 -0.804774 -2.12 0.7 0.7 6.89145 
1 1 0.732862 0.7 0.7 0.7 -6.31577 
2 1 0.191917 3.52 3.52 0.7 -0.906488 
3 1 0.339789 0.7 3.52 3.52 -2.38535 
4 1 0.159053 3.52 0.7 3.52 -0.57775 
5 2 -0.141266 3.52 3.52 3.52 0.257013 
6 2 -0.550191 0.7 0.7 3.52 4.34618 
7 2 -0.447307 0.7 3.52 0.7 3.31694 
8 2 -0.165617 3.52 0.7 0.7 0.50032 
ITEM: TIMESTEP
10
ITEM: NUMBER OF ATOMS
64
ITEM: BOX BOUNDS pp pp pp
-5.64 5.64
-5.64 5.64
-5.64 5.64
ITEM: ATOMS id type q x y z f_ct 
57 1 0.75379 -4.94 -4.94 -4.94 -6.52485 
58 1 0.883965 -2.12 -2.12 -4.94 -7.82678 
59 1 1.08664 -4.94 -2.12 -2.12 -9.85344 
60 1 0.955048 -2.12 -4.94 -2.12 -8.53713 
61 2 -0.967433 -2.12 -2.12 -2.12 8.51888 
62 2 -0.97716 -4.94 -4.94 -2.12 8.61622 
63 2 -0.925573 -4.94 -2.12 -4.94 8.10019 
64 2 -0.807397 -2.12 -4.94 -4.94 6.91856 
25 1 0.747892 0.7 -4.94 -4.94 -6.46598 
26 1 0.393805 3.52 -2.12 -4.94 -2.92511 
27 1 0.899329 0.7 -2.12 -2.12 -7.98049 
28 1 0.391628 3.52 -4.94 -2.12 -2.90285 
29 2 -0.47368 3.52 -2.12 -2.12 3.58116 
30 2 -0.88366 0.7 -4.94 -2.12 7.68122 
31 2 -0.820512 0.7 -2.12 -4.94 7.0494 
32 2 -0.293232 3.52 -4.94 -4.94 1.77686 
41 1 0.728834 -4.94 0.7 -4.94 -6.27531 
42 1 0.50828 -2.12 3.52 -4.94 -4.0697 
43 1 0.625724 -4.94 3.52 -2.12 -5.24425 
44 1 0.865428 -2.12 0.7 -2.12 -7.6409 
45 2 -0.61792 -2.12 3.52 -2.12 5.0238 
46 2 -0.827361 -4.94 0.7 -2.12 7.1181 
47 2 -0.467884 -4.94 3.52 -4.94 3.52356 
48 2 -0.80526 -2.12 0.7 -4.94 6.89724 
9 1 0.738413 0.7 0.7 -4.94 -6.37128 
10 1 0.211973 3.52 3.52 -4.94 -1.10705 
11 1 0.563316 0.7 3.52 -2.12 -4.62001 
12 1 0.230817 3.52 0.7 -2.12 -1.29483 
13 2 -0.295946 3.52 3.52 -2.12 1.80412 
14 2 -0.798264 0.7 0.7 -2.12 6.82704 
15 2 -0.467559 0.7 3.52 -4.94 3.52045 
16 2 -0.20947 3.52 0.7 -4.94 0.939607 
49 1 0.748065 -4.94 -4.94 0.7 -6.46767 
50 1 0.88653 -2.12 -2.12 0.7 -7.85219 
51 1 0.684857 -4.94 -2.12 3.52 -5.83578 
52 1 0.590494 -2.12 -4.94 3.52 -4.89188 
53 2 -0.658113 -2.12 -2.12 3.52 5.42589 
54 2 -0.543564 -4.94 -4.94 3.52 4.28022 
55 2 -0.922243 -4.94 -2.12 0.7 8.06687 
56 2 -0.811832 -2.12 -4.94 0.7 6.96304 
17 1 0.744703 0.7 -4.94 0.7 -6.43406 
18 1 0.353664 3.52 -2.12 0.7 -2.52339 
19 1 0.608779 0.7 -2.12 3.52 -5.07462 
20 1 0.201708 3.52 -4.94 3.52 -1.00412 
21 2 -0.299809 3.52 -2.12 3.52 1.84267 
22 2 -0.547391 0.7 -4.94 3.52 4.31838 
23 2 -0.81928 0.7 -2.12 0.7 7.03735 
24 2 -0.248432 3.52 -4.94 0.7 1.32868 
33 1 0.714724 -4.94 0.7 0.7 -6.1342 
34 1 0.489512 -2.12 3.52 0.7 -3.88235 
35 1 0.330713 -4.94 3.52 3.52 -2.29403 
36 1 0.596481 -2.12 0.7 3.52 -4.95164 
37 2 -0.378377 -2.12 3.52 3.52 2.62796 
38 2 -0.54379 -4.94 0.7 3.52 4.28251 
39 2 -0.438205 -4.94 3.52 0.7 3.22682 
40 2 -0.804648 -2.12 0.7 0.7 6.89123 
1 1 0.732877 0.7 0.7 0.7 -6.31588 
2 1 0.19188 3.52 3.52 0.7 -0.906077 
3 1 0.339346 0.7 3.52 3.52 -2.38026 
4 1 0.159121 3.52 0.7 3.52 -0.578148 
5 2 -0.1412 3.52 3.52 3.52 0.25638 
6 2 -0.550048 0.7 0.7 3.52 4.34482 
7 2 -0.447616 0.7 3.52 0.7 3.321 
8 2 -0.165479 3.52 0.7 0.7 0.499481 
ITEM: TIMESTEP
11
ITEM: NUMBER OF ATOMS
64
ITEM: BOX BOUNDS pp pp pp
-5.64 5.64
-5.64 5.64
-5.64 5.64
ITEM: ATOMS id type q x y z f_ct 
57 1 0.753838 -4.94 -4.94 -4.94 -6.5254 
58 1 0.884002 -2.12 -2.12 -4.94 -7.8271 
59 1 1.08635 -4.94 -2.12 -2.12 -9.85028 
60 1 0.95494 -2.12 -4.94 -2.12 -8.53661 
61 2 -0.967228 -2.12 -2.12 -2.12 8.5168 
62 2 -0.977182 -4.94 -4.94 -2.12 8.61629 
63 2 -0.925627 -4.94 -2.12 -4.94 8.10114 
64 2 -0.807434 -2.12 -4.94 -4.94 6.91892 
25 1 0.747796 0.7 -4.94 -4.94 -6.46479 
26 1 0.393905 3.52 -2.12 -4.94 -2.9262 
27 1 0.899265 0.7 -2.12 -2.12 -7.97936 
28 1 0.391432 3.52 -4.94 -2.12 -2.90126 
29 2 -0.473461 3.52 -2.12 -2.12 3.57916 
30 2 -0.883608 0.7 -4.94 -2.12 7.68031 
31 2 -0.820418 0.7 -2.12 -4.94 7.049 
32 2 -0.293229 3.52 -4.94 -4.94 1.77693 
41 1 0.728842 -4.94 0.7 -4.94 -6.27527 
42 1 0.508199 -2.12 3.52 -4.94 -4.06907 
43 1 0.625756 -4.94 3.52 -2.12 -5.24423 
44 1 0.86532 -2.12 0.7 -2.12 -7.64025 
45 2 -0.617945 -2.12 3.52 -2.12 5.02408 
46 2 -0.827341 -4.94 0.7 -2.12 7.11787 
47 2 -0.467635 -4.94 3.52 -4.94 3.52132 
48 2 -0.805248 -2.12 0.7 -4.94 6.89693 
9 1 0.738333 0.7 0.7 -4.94 -6.37013 
10 1 0.212027 3.52 3.52 -4.94 -1.10746 
11 1 0.56329 0.7 3.52 -2.12 -4.6198 
12 1 0.230552 3.52 0.7 -2.12 -1.29246 
13 2 -0.29599 3.52 3.52 -2.12 1.8048 
14 2 -0.798251 0.7 0.7 -2.12 6.82684 
15 2 -0.467293 0.7 3.52 -4.94 3.51772 
16 2 -0.209431 3.52 0.7 -4.94 0.938757 
49 1 0.748212 -4.94 -4.94 0.7 -6.46906 