# 
# 1 = Na
# 2 = Cl


64 atoms
2 atom types

-5.64 5.64 xlo xhi
-5.64 5.64 ylo yhi
-5.64 5.64 zlo zhi

Masses

1 22.9898
2 35.4527

Atoms

1 1  0.0  0.7 0.7 0.7
2 1  0.0  3.52 3.52 0.7
3 1  0.0  0.7 3.52 3.52
4 1  0.0  3.52 0.7 3.52
5 2  0.0  3.52 3.52 3.52
6 2  0.0  0.7 0.7 3.52
7 2  0.0  0.7 3.52 0.7
8 2  0.0  3.52 0.7 0.7
9 1  0.0  0.7 0.7 -4.94
10 1  0.0  3.52 3.52 -4.94
11 1  0.0  0.7 3.52 -2.12
12 1  0.0  3.52 0.7 -2.12
13 2  0.0  3.52 3.52 -2.12
14 2  0.0  0.7 0.7 -2.12
15 2  0.0  0.7 3.52 -4.94
16 2  0.0  3.52 0.7 -4.94
17 1  0.0  0.7 -4.94 0.7
18 1  0.0  3.52 -2.12 0.7
19 1  0.0  0.7 -2.12 3.52
20 1  0.0  3.52 -4.94 3.52
21 2  0.0  3.52 -2.12 3.52
22 2  0.0  0.7 -4.94 3.52
23 2  0.0  0.7 -2.12 0.7
24 2  0.0  3.52 -4.94 0.7
25 1  0.0  0.7 -4.94 -4.94
26 1  0.0  3.52 -2.12 -4.94
27 1  0.0  0.7 -2.12 -2.12
28 1  0.0  3.52 -4.94 -2.12
29 2  0.0  3.52 -2.12 -2.12
30 2  0.0  0.7 -4.94 -2.12
31 2  0.0  0.7 -2.12 -4.94
32 2  0.0  3.52 -4.94 -4.94
33 1  0.0  -4.94 0.7 0.7
34 1  0.0  -2.12 3.52 0.7
35 1  0.0  -4.94 3.52 3.52
36 1  0.0  -2.12 0.7 3.52
37 2  0.0  -2.12 3.52 3.52
38 2  0.0  -4.94 0.7 3.52
39 2  0.0  -4.94 3.52 0.7
40 2  0.0  -2.12 0.7 0.7
41 1  0.0  -4.94 0.7 -4.94
42 1  0.0  -2.12 3.52 -4.94
43 1  0.0  -4.94 3.52 -2.12
44 1  0.0  -2.12 0.7 -2.12
45 2  0.0  -2.12 3.52 -2.12
46 2  0.0  -4.94 0.7 -2.12
47 2  0.0  -4.94 3.52 -4.94
48 2  0.0  -2.12 0.7 -4.94
49 1  0.0  -4.94 -4.94 0.7
50 1  0.0  -2.12 -2.12 0.7
51 1  0.0  -4.94 -2.12 3.52
52 1  0.0  -2.12 -4.94 3.52
53 2  0.0  -2.12 -2.12 3.52
54 2  0.0  -4.94 -4.94 3.52
55 2  0.0  -4.94 -2.12 0.7
56 2  0.0  -2.12 -4.94 0.7
57 1  0.0  -4.94 -4.94 -4.94
58 1  0.0  -2.12 -2.12 -4.94
59 1  0.0  -4.94 -2.12 -2.12
60 1  0.0  -2.12 -4.94 -2.12
61 2  0.0  -2.12 -2.12 -2.12
62 2  0.0  -4.94 -4.94 -2.12
63 2  0.0  -4.94 -2.12 -4.94
64 2  0.0  -2.12 -4.94 -4.94
