LAMMPS (26 Nov 2014)
# NaCl Madelung sum (Na+ Cl-)

# 1 - init general

processors 1 1 1

units		metal
atom_style	charge

# 2 - init system

boundary	p p p
read_data	data
  orthogonal box = (-5.64 -5.64 -5.64) to (5.64 5.64 5.64)
  1 by 1 by 1 MPI processor grid
  reading atoms ...
  64 atoms

group		g_Na type 1
32 atoms in group g_Na
group		g_Cl type 2
32 atoms in group g_Cl

set		group g_Na charge -0.5
  32 settings made for charge
set		group g_Cl charge 0.5
  32 settings made for charge


# 3 - init potential

# 1-Na, 2-Cl

pair_style	coul/long 10.0
pair_coeff      * *
kspace_style   	pppm/bsct 1.0e-4

# 4 - settings

neighbor	1.0 bin
neigh_modify	delay 0 every 1 check yes

fix		1 all nve
fix             2 all setforce 0.0 0.0 0.0

# BSCT
fix		ct all bsct  log 3  mode 2  history 10  beta 0.1  prec 0.001  coulcut 10.0  pppmprec 1.0e-4  max_iter 100  type 1 -1.084 5.0 5.0 2.0  type 2 1.084 5.0 5.0 2.0
Initializing internal pair_style coul/long/bsct and pppm/bsct.
Band structure charge transfer fix parameters:
  Update charges every 1 steps
  Logging level (0-3)  = 3
  Total charge = 0.000000
  Convergence criterion for |dG/dq_i| = 0.001000
  PPPM accurafy = 1.0e-4
  Short-range Coulomb cutoff = 10.0
  Convergence criterion for |dG/dq_i| = 0.001000
  Anderson mixing options:
    Mode = 2
    Maximum iterations = 100
    Mixing parameters:
       beta = 0.100000
       beta_max = 0.100000
       beta_mul = 1.000000
       history = 10
  Atom type parameters:
       type               X               U               V               p
          1        -1.08400         5.00000         5.00000         2.00000
          2         1.08400         5.00000         5.00000         2.00000

fix_modify	ct energy yes

thermo		1
thermo_style	custom step temp epair etotal f_ct elong ecoul

timestep	0.001

dump            1 all custom 1 custom.dump id type q x y z f_ct

# 5 - run

run		15
PPPM initialization ...
  G vector (1/distance) = 0.266204
  grid = 6 6 6
  stencil order = 5
  estimated absolute RMS force accuracy = 0.000568377
  estimated relative force accuracy = 3.94716e-05
  using double precision FFTs
  3d grid and FFT values/proc = 1331 216
PPPM initialization ...
  G vector (1/distance) = 0.266204
  grid = 6 6 6
  stencil order = 5
  estimated absolute RMS force accuracy = 0.000568377
  estimated relative force accuracy = 3.94716e-05
  using double precision FFTs
  3d grid and FFT values/proc = 1331 216
Memory usage per processor = 3.89513 Mbytes
Step Temp E_pair TotEng ct E_long E_coul 
       0            0    -71.38752     43.30048      114.688   -34.602515   -36.785005 
                  CT   ------------------------------------
                  CT   iter               G    max|dG/dq_i|         |dG/dq|        max|q_i|      max|phi_i|            beta
PPPM initialization ...
  G vector (1/distance) = 0.266204
  grid = 6 6 6
  stencil order = 5
  estimated absolute RMS force accuracy = 0.000568377
  estimated relative force accuracy = 3.94716e-05
  using double precision FFTs
  3d grid and FFT values/proc = 1331 216
FixBSCT_fdf: short- and long-range Coulomb energies: -36.785005 0.000000
FixBSCT_fdf: Coulomb energy from sum of q*phi: -71.399762
                  CT      0        77.90299         1.62153        12.97212         0.50000         4.46249         0.10000
PPPM initialization ...
  G vector (1/distance) = 0.266188
  grid = 6 6 6
  stencil order = 5
  estimated absolute RMS force accuracy = 0.000497139
  estimated relative force accuracy = 3.45244e-05
  using double precision FFTs
  3d grid and FFT values/proc = 1331 216
FixBSCT_fdf: short- and long-range Coulomb energies: -32.456182 0.000000
FixBSCT_fdf: Coulomb energy from sum of q*phi: -62.598826
                  CT      1        69.94079         1.61321        12.60815         0.46757         4.24404         0.10000
FixBSCT_fdf: short- and long-range Coulomb energies: -26.505995 0.000000
FixBSCT_fdf: Coulomb energy from sum of q*phi: -64.006138
                  CT      2        16.73823         1.29463         4.61079         0.51419         5.34246         0.10000
FixBSCT_fdf: short- and long-range Coulomb energies: -29.329520 0.000000
FixBSCT_fdf: Coulomb energy from sum of q*phi: -69.907877
                  CT      3        19.24648         1.20914         4.17866         0.57047         5.79033         0.10000
FixBSCT_fdf: short- and long-range Coulomb energies: -37.887055 0.000000
FixBSCT_fdf: Coulomb energy from sum of q*phi: -87.217937
                  CT      4        27.08089         0.95701         3.11887         0.76664         7.52869         0.10000
FixBSCT_fdf: short- and long-range Coulomb energies: -43.841797 0.000000
FixBSCT_fdf: Coulomb energy from sum of q*phi: -99.099349
                  CT      5        32.99658         0.80257         2.25278         0.91726         8.94085         0.10000
FixBSCT_fdf: short- and long-range Coulomb energies: -47.377782 0.000000
FixBSCT_fdf: Coulomb energy from sum of q*phi: -106.078089
                  CT      6        36.68241         0.66819         1.73676         1.01623         9.60340         0.10000
FixBSCT_fdf: short- and long-range Coulomb energies: -49.796803 0.000000
FixBSCT_fdf: Coulomb energy from sum of q*phi: -110.720207
                  CT      7        39.15910         0.73338         1.40787         1.09031         9.83015         0.10000
FixBSCT_fdf: short- and long-range Coulomb energies: -51.288549 0.000000
FixBSCT_fdf: Coulomb energy from sum of q*phi: -113.616112
                  CT      8        40.67843         0.37868         0.91862         1.11062        10.05646         0.10000
FixBSCT_fdf: short- and long-range Coulomb energies: -52.526757 0.000000
FixBSCT_fdf: Coulomb energy from sum of q*phi: -116.012328
                  CT      9        41.96012         0.25069         0.64701         1.11773        10.12459         0.10000
FixBSCT_fdf: short- and long-range Coulomb energies: -53.085979 0.000000
FixBSCT_fdf: Coulomb energy from sum of q*phi: -117.076033
                  CT     10        42.53985         0.19437         0.46891         1.11733        10.07944         0.10000
PPPM initialization ...
  G vector (1/distance) = 0.288992
  grid = 8 8 8
  stencil order = 5
  estimated absolute RMS force accuracy = 0.000272813
  estimated relative force accuracy = 1.89458e-05
  using double precision FFTs
  3d grid and FFT values/proc = 2197 512
FixBSCT_fdf: short- and long-range Coulomb energies: -53.537456 0.000000
FixBSCT_fdf: Coulomb energy from sum of q*phi: -117.906063
                  CT     11        42.99461         0.11067         0.29630         1.10757        10.02065         0.10000
FixBSCT_fdf: short- and long-range Coulomb energies: -53.568124 0.000000
FixBSCT_fdf: Coulomb energy from sum of q*phi: -117.964747
                  CT     12        43.01749         0.11142         0.24327         1.10423         9.98774         0.10000
FixBSCT_fdf: short- and long-range Coulomb energies: -53.775080 0.000000
FixBSCT_fdf: Coulomb energy from sum of q*phi: -118.346189
                  CT     13        43.21990         0.04104         0.14841         1.09895         9.97078         0.10000
FixBSCT_fdf: short- and long-range Coulomb energies: -53.703970 0.000000
FixBSCT_fdf: Coulomb energy from sum of q*phi: -118.162158
                  CT     14        43.12091         0.03424         0.11377         1.09601         9.95225         0.10000
FixBSCT_fdf: short- and long-range Coulomb energies: -53.515018 0.000000
FixBSCT_fdf: Coulomb energy from sum of q*phi: -117.747155
                  CT     15        42.88726         0.03395         0.08693         1.09166         9.91848         0.10000
FixBSCT_fdf: short- and long-range Coulomb energies: -53.493727 0.000000
FixBSCT_fdf: Coulomb energy from sum of q*phi: -117.694111
                  CT     16        42.85514         0.02845         0.07474         1.09068         9.90896         0.10000
FixBSCT_fdf: short- and long-range Coulomb energies: -53.592496 0.000000
FixBSCT_fdf: Coulomb energy from sum of q*phi: -117.894149
                  CT     17        42.95540         0.01631         0.05180         1.09040         9.91088         0.10000
FixBSCT_fdf: short- and long-range Coulomb energies: -53.676754 0.000000
FixBSCT_fdf: Coulomb energy from sum of q*phi: -118.072530
                  CT     18        43.04573         0.01354         0.04149         1.09059         9.91664         0.10000
FixBSCT_fdf: short- and long-range Coulomb energies: -53.817741 0.000000
FixBSCT_fdf: Coulomb energy from sum of q*phi: -118.367079
                  CT     19        43.19745         0.00680         0.02635         1.09205         9.93080         0.10000
FixBSCT_fdf: short- and long-range Coulomb energies: -53.890852 0.000000
FixBSCT_fdf: Coulomb energy from sum of q*phi: -118.519714
                  CT     20        43.27673         0.00531         0.02073         1.09292         9.93548         0.10000
PPPM initialization ...
  G vector (1/distance) = 0.289001
  grid = 8 8 8
  stencil order = 5
  estimated absolute RMS force accuracy = 0.000274227
  estimated relative force accuracy = 1.9044e-05
  using double precision FFTs
  3d grid and FFT values/proc = 2197 512
FixBSCT_fdf: short- and long-range Coulomb energies: -53.928850 0.000000
FixBSCT_fdf: Coulomb energy from sum of q*phi: -118.602878
                  CT     21        43.31736         0.00506         0.01683         1.09322         9.93735         0.10000
FixBSCT_fdf: short- and long-range Coulomb energies: -53.962780 0.000000
FixBSCT_fdf: Coulomb energy from sum of q*phi: -118.679341
                  CT     22        43.35404         0.00350         0.01274         1.09345         9.93914         0.10000
FixBSCT_fdf: short- and long-range Coulomb energies: -53.998563 0.000000
FixBSCT_fdf: Coulomb energy from sum of q*phi: -118.758565
                  CT     23        43.39335         0.00282         0.00942         1.09370         9.94146         0.10000
FixBSCT_fdf: short- and long-range Coulomb energies: -54.035386 0.000000
FixBSCT_fdf: Coulomb energy from sum of q*phi: -118.838276
                  CT     24        43.43411         0.00211         0.00619         1.09399         9.94415         0.10000
FixBSCT_fdf: short- and long-range Coulomb energies: -54.057627 0.000000
FixBSCT_fdf: Coulomb energy from sum of q*phi: -118.884584
                  CT     25        43.45884         0.00119         0.00441         1.09420         9.94650         0.10000
FixBSCT_fdf: short- and long-range Coulomb energies: -54.070856 0.000000
FixBSCT_fdf: Coulomb energy from sum of q*phi: -118.911981
                  CT     26        43.47363         0.00095         0.00353         1.09435         9.94801         0.10000
                  CT     26        43.47363         0.00095         0.00353  <- minimum found
                  CT   ------------------------------------
PPPM initialization ...
  G vector (1/distance) = 0.289006
  grid = 8 8 8
  stencil order = 5
  estimated absolute RMS force accuracy = 0.00027491
  estimated relative force accuracy = 1.90915e-05
  using double precision FFTs
  3d grid and FFT values/proc = 2197 512
       1            0   -114.75973   -17.215239    97.544489   -65.844236   -48.915492 
                  CT   ------------------------------------
                  CT   iter               G    max|dG/dq_i|         |dG/dq|        max|q_i|      max|phi_i|            beta
PPPM initialization ...
  G vector (1/distance) = 0.289006
  grid = 8 8 8
  stencil order = 5
  estimated absolute RMS force accuracy = 0.00027491
  estimated relative force accuracy = 1.90915e-05
  using double precision FFTs
  3d grid and FFT values/proc = 2197 512
FixBSCT_fdf: short- and long-range Coulomb energies: -48.915492 0.000000
FixBSCT_fdf: Coulomb energy from sum of q*phi: -118.480799
                  CT      0        48.62900         0.18608         0.43207         1.09435         9.95632         0.10000
PPPM initialization ...
  G vector (1/distance) = 0.289004
  grid = 8 8 8
  stencil order = 5
  estimated absolute RMS force accuracy = 0.000274585
  estimated relative force accuracy = 1.90689e-05
  using double precision FFTs
  3d grid and FFT values/proc = 2197 512
FixBSCT_fdf: short- and long-range Coulomb energies: -48.866021 0.000000
FixBSCT_fdf: Coulomb energy from sum of q*phi: -118.343299
                  CT      1        48.55052         0.15578         0.39264         1.09485         9.95199         0.10000
FixBSCT_fdf: short- and long-range Coulomb energies: -48.737459 0.000000
FixBSCT_fdf: Coulomb energy from sum of q*phi: -117.986051
                  CT      2        48.35211         0.10292         0.33287         1.09569         9.95857         0.10000
FixBSCT_fdf: short- and long-range Coulomb energies: -48.475417 0.000000
FixBSCT_fdf: Coulomb energy from sum of q*phi: -117.262534
                  CT      3        47.96155         0.06318         0.26280         1.09740         9.97758         0.10000
FixBSCT_fdf: short- and long-range Coulomb energies: -48.200592 0.000000
FixBSCT_fdf: Coulomb energy from sum of q*phi: -116.520896
                  CT      4        47.57488         0.05701         0.20655         1.09954         9.98349         0.10000
FixBSCT_fdf: short- and long-range Coulomb energies: -47.920824 0.000000
FixBSCT_fdf: Coulomb energy from sum of q*phi: -115.785897
                  CT      5        47.19592         0.03924         0.16113         1.10072         9.99589         0.10000
FixBSCT_fdf: short- and long-range Coulomb energies: -47.633958 0.000000
FixBSCT_fdf: Coulomb energy from sum of q*phi: -115.055263
                  CT      6        46.81434         0.03499         0.12489         1.10131         9.99449         0.10000
FixBSCT_fdf: short- and long-range Coulomb energies: -47.412635 0.000000
FixBSCT_fdf: Coulomb energy from sum of q*phi: -114.507492
                  CT      7        46.51789         0.02819         0.09998         1.10091         9.98094         0.10000
FixBSCT_fdf: short- and long-range Coulomb energies: -47.183040 0.000000
FixBSCT_fdf: Coulomb energy from sum of q*phi: -113.948913
                  CT      8        46.20814         0.02632         0.08060         1.09953         9.95822         0.10000
FixBSCT_fdf: short- and long-range Coulomb energies: -46.958440 0.000000
FixBSCT_fdf: Coulomb energy from sum of q*phi: -113.415083
                  CT      9        45.90290         0.02194         0.05958         1.09615         9.92779         0.10000
FixBSCT_fdf: short- and long-range Coulomb energies: -46.781207 0.000000
FixBSCT_fdf: Coulomb energy from sum of q*phi: -112.997315
                  CT     10        45.66210         0.01440         0.04640         1.09299         9.90385         0.10000
PPPM initialization ...
  G vector (1/distance) = 0.288907
  grid = 8 8 8
  stencil order = 5
  estimated absolute RMS force accuracy = 0.000261702
  estimated relative force accuracy = 1.81742e-05
  using double precision FFTs
  3d grid and FFT values/proc = 2197 512
FixBSCT_fdf: short- and long-range Coulomb energies: -46.611794 0.000000
FixBSCT_fdf: Coulomb energy from sum of q*phi: -112.603021
                  CT     11        45.43316         0.01454         0.03320         1.08985         9.88131         0.10000
FixBSCT_fdf: short- and long-range Coulomb energies: -46.564554 0.000000
FixBSCT_fdf: Coulomb energy from sum of q*phi: -112.493646
                  CT     12        45.37004         0.01314         0.02917         1.08912         9.87605         0.10000
FixBSCT_fdf: short- and long-range Coulomb energies: -46.468562 0.000000
FixBSCT_fdf: Coulomb energy from sum of q*phi: -112.273668
                  CT     13        45.24151         0.00878         0.02039         1.08767         9.86492         0.10000
FixBSCT_fdf: short- and long-range Coulomb energies: -46.416994 0.000000
FixBSCT_fdf: Coulomb energy from sum of q*phi: -112.154051
                  CT     14        45.17201         0.00770         0.01556         1.08715         9.86037         0.10000
FixBSCT_fdf: short- and long-range Coulomb energies: -46.367269 0.000000
FixBSCT_fdf: Coulomb energy from sum of q*phi: -112.041532
                  CT     15        45.10540         0.00299         0.00838         1.08671         9.85686         0.10000
FixBSCT_fdf: short- and long-range Coulomb energies: -46.354189 0.000000
FixBSCT_fdf: Coulomb energy from sum of q*phi: -112.012812
                  CT     16        45.08801         0.00201         0.00629         1.08663         9.85554         0.10000
FixBSCT_fdf: short- and long-range Coulomb energies: -46.343857 0.000000
FixBSCT_fdf: Coulomb energy from sum of q*phi: -111.988089
                  CT     17        45.07421         0.00158         0.00497         1.08666         9.85528         0.10000
FixBSCT_fdf: short- and long-range Coulomb energies: -46.341029 0.000000
FixBSCT_fdf: Coulomb energy from sum of q*phi: -111.981494
                  CT     18        45.07022         0.00120         0.00378         1.08671         9.85571         0.10000
FixBSCT_fdf: short- and long-range Coulomb energies: -46.335957 0.000000
FixBSCT_fdf: Coulomb energy from sum of q*phi: -111.969317
                  CT     19        45.06329         0.00102         0.00288         1.08676         9.85595         0.10000
FixBSCT_fdf: short- and long-range Coulomb energies: -46.327356 0.000000
FixBSCT_fdf: Coulomb energy from sum of q*phi: -111.948379
                  CT     20        45.05186         0.00080         0.00217         1.08678         9.85598         0.10000
                  CT     20        45.05186         0.00080         0.00217  <- minimum found
                  CT   ------------------------------------
PPPM initialization ...
  G vector (1/distance) = 0.289562
  grid = 8 8 8
  stencil order = 5
  estimated absolute RMS force accuracy = 0.000257114
  estimated relative force accuracy = 1.78556e-05
  using double precision FFTs
  3d grid and FFT values/proc = 2197 512
       2            0   -108.52963   -17.150413    91.379219    -62.32041   -46.209222 
                  CT   ------------------------------------
                  CT   iter               G    max|dG/dq_i|         |dG/dq|        max|q_i|      max|phi_i|            beta
PPPM initialization ...
  G vector (1/distance) = 0.289562
  grid = 8 8 8
  stencil order = 5
  estimated absolute RMS force accuracy = 0.000257114
  estimated relative force accuracy = 1.78556e-05
  using double precision FFTs
  3d grid and FFT values/proc = 2197 512
FixBSCT_fdf: short- and long-range Coulomb energies: -46.209222 0.000000
FixBSCT_fdf: Coulomb energy from sum of q*phi: -111.933030
                  CT      0        45.17000         0.00493         0.01135         1.08678         9.85524         0.10000
PPPM initialization ...
  G vector (1/distance) = 0.289562
  grid = 8 8 8
  stencil order = 5
  estimated absolute RMS force accuracy = 0.000257102
  estimated relative force accuracy = 1.78548e-05
  using double precision FFTs
  3d grid and FFT values/proc = 2197 512
FixBSCT_fdf: short- and long-range Coulomb energies: -46.207329 0.000000
FixBSCT_fdf: Coulomb energy from sum of q*phi: -111.928134
                  CT      1        45.16717         0.00395         0.01013         1.08678         9.85491         0.10000
FixBSCT_fdf: short- and long-range Coulomb energies: -46.203145 0.000000
FixBSCT_fdf: Coulomb energy from sum of q*phi: -111.917276
                  CT      2        45.16101         0.00265         0.00870         1.08676         9.85482         0.10000
FixBSCT_fdf: short- and long-range Coulomb energies: -46.194193 0.000000
FixBSCT_fdf: Coulomb energy from sum of q*phi: -111.894054
                  CT      3        45.14806         0.00160         0.00701         1.08673         9.85492         0.10000
FixBSCT_fdf: short- and long-range Coulomb energies: -46.183234 0.000000
FixBSCT_fdf: Coulomb energy from sum of q*phi: -111.865852
                  CT      4        45.13272         0.00125         0.00550         1.08673         9.85466         0.10000
FixBSCT_fdf: short- and long-range Coulomb energies: -46.173613 0.000000
FixBSCT_fdf: Coulomb energy from sum of q*phi: -111.841442
                  CT      5        45.11963         0.00095         0.00444         1.08672         9.85472         0.10000
                  CT      5        45.11963         0.00095         0.00444  <- minimum found
                  CT   ------------------------------------
PPPM initialization ...
  G vector (1/distance) = 0.289562
  grid = 8 8 8
  stencil order = 5
  estimated absolute RMS force accuracy = 0.000256901
  estimated relative force accuracy = 1.78408e-05
  using double precision FFTs
  3d grid and FFT values/proc = 2197 512
       3            0   -108.44246    -17.14922    91.293241    -62.26884   -46.173621 
                  CT   ------------------------------------
                  CT   iter               G    max|dG/dq_i|         |dG/dq|        max|q_i|      max|phi_i|            beta
PPPM initialization ...
  G vector (1/distance) = 0.289562
  grid = 8 8 8
  stencil order = 5
  estimated absolute RMS force accuracy = 0.000256901
  estimated relative force accuracy = 1.78408e-05
  using double precision FFTs
  3d grid and FFT values/proc = 2197 512
FixBSCT_fdf: short- and long-range Coulomb energies: -46.173621 0.000000
FixBSCT_fdf: Coulomb energy from sum of q*phi: -111.840680
                  CT      0        45.11962         0.00574         0.01385         1.08672         9.85214         0.10000
PPPM initialization ...
  G vector (1/distance) = 0.289562
  grid = 8 8 8
  stencil order = 5
  estimated absolute RMS force accuracy = 0.000256894
  estimated relative force accuracy = 1.78403e-05
  using double precision FFTs
  3d grid and FFT values/proc = 2197 512
FixBSCT_fdf: short- and long-range Coulomb energies: -46.172283 0.000000
FixBSCT_fdf: Coulomb energy from sum of q*phi: -111.837346
                  CT      1        45.11786         0.00457         0.00995         1.08667         9.85295         0.10000
FixBSCT_fdf: short- and long-range Coulomb energies: -46.170097 0.000000
FixBSCT_fdf: Coulomb energy from sum of q*phi: -111.831946
                  CT      2        45.11492         0.00313         0.00766         1.08662         9.85304         0.10000
FixBSCT_fdf: short- and long-range Coulomb energies: -46.164852 0.000000
FixBSCT_fdf: Coulomb energy from sum of q*phi: -111.819042
                  CT      3        45.10779         0.00183         0.00505         1.08655         9.85246         0.10000
FixBSCT_fdf: short- and long-range Coulomb energies: -46.158740 0.000000
FixBSCT_fdf: Coulomb energy from sum of q*phi: -111.804029
                  CT      4        45.09943         0.00097         0.00353         1.08648         9.85226         0.10000
                  CT      4        45.09943         0.00097         0.00353  <- minimum found
                  CT   ------------------------------------
PPPM initialization ...
  G vector (1/distance) = 0.289562
  grid = 8 8 8
  stencil order = 5
  estimated absolute RMS force accuracy = 0.000256818
  estimated relative force accuracy = 1.7835e-05
  using double precision FFTs
  3d grid and FFT values/proc = 2197 512
       4            0   -108.40726   -17.149092    91.258168   -62.248517   -46.158743 
                  CT   ------------------------------------
                  CT   iter               G    max|dG/dq_i|         |dG/dq|        max|q_i|      max|phi_i|            beta
PPPM initialization ...
  G vector (1/distance) = 0.289562
  grid = 8 8 8
  stencil order = 5
  estimated absolute RMS force accuracy = 0.000256818
  estimated relative force accuracy = 1.7835e-05
  using double precision FFTs
  3d grid and FFT values/proc = 2197 512
FixBSCT_fdf: short- and long-range Coulomb energies: -46.158743 0.000000
FixBSCT_fdf: Coulomb energy from sum of q*phi: -111.804030
                  CT      0        45.09942         0.00097         0.00353         1.08648         9.85226         0.10000
                  CT      0        45.09942         0.00097         0.00353  <- minimum found
                  CT   ------------------------------------
PPPM initialization ...
  G vector (1/distance) = 0.289562
  grid = 8 8 8
  stencil order = 5
  estimated absolute RMS force accuracy = 0.000256818
  estimated relative force accuracy = 1.7835e-05
  using double precision FFTs
  3d grid and FFT values/proc = 2197 512
       5            0   -108.40726   -17.149092    91.258168   -62.248517   -46.158743 
                  CT   ------------------------------------
                  CT   iter               G    max|dG/dq_i|         |dG/dq|        max|q_i|      max|phi_i|            beta
PPPM initialization ...
  G vector (1/distance) = 0.289562
  grid = 8 8 8
  stencil order = 5
  estimated absolute RMS force accuracy = 0.000256818
  estimated relative force accuracy = 1.7835e-05
  using double precision FFTs
  3d grid and FFT values/proc = 2197 512
FixBSCT_fdf: short- and long-range Coulomb energies: -46.158743 0.000000
FixBSCT_fdf: Coulomb energy from sum of q*phi: -111.804030
                  CT      0        45.09942         0.00097         0.00353         1.08648         9.85226         0.10000
                  CT      0        45.09942         0.00097         0.00353  <- minimum found
                  CT   ------------------------------------
PPPM initialization ...
  G vector (1/distance) = 0.289562
  grid = 8 8 8
  stencil order = 5
  estimated absolute RMS force accuracy = 0.000256818
  estimated relative force accuracy = 1.7835e-05
  using double precision FFTs
  3d grid and FFT values/proc = 2197 512
       6            0   -108.40726   -17.149092    91.258168   -62.248517   -46.158743 
                  CT   ------------------------------------
                  CT   iter               G    max|dG/dq_i|         |dG/dq|        max|q_i|      max|phi_i|            beta
PPPM initialization ...
  G vector (1/distance) = 0.289562
  grid = 8 8 8
  stencil order = 5
  estimated absolute RMS force accuracy = 0.000256818
  estimated relative force accuracy = 1.7835e-05
  using double precision FFTs
  3d grid and FFT values/proc = 2197 512
FixBSCT_fdf: short- and long-range Coulomb energies: -46.158743 0.000000
FixBSCT_fdf: Coulomb energy from sum of q*phi: -111.804030
                  CT      0        45.09942         0.00097         0.00353         1.08648         9.85226         0.10000
                  CT      0        45.09942         0.00097         0.00353  <- minimum found
                  CT   ------------------------------------
PPPM initialization ...
  G vector (1/distance) = 0.289562
  grid = 8 8 8
  stencil order = 5
  estimated absolute RMS force accuracy = 0.000256818
  estimated relative force accuracy = 1.7835e-05
  using double precision FFTs
  3d grid and FFT values/proc = 2197 512
       7            0   -108.40726   -17.149092    91.258168   -62.248517   -46.158743 
                  CT   ------------------------------------
                  CT   iter               G    max|dG/dq_i|         |dG/dq|        max|q_i|      max|phi_i|            beta
PPPM initialization ...
  G vector (1/distance) = 0.289562
  grid = 8 8 8
  stencil order = 5
  estimated absolute RMS force accuracy = 0.000256818
  estimated relative force accuracy = 1.7835e-05
  using double precision FFTs
  3d grid and FFT values/proc = 2197 512
FixBSCT_fdf: short- and long-range Coulomb energies: -46.158743 0.000000
FixBSCT_fdf: Coulomb energy from sum of q*phi: -111.804030
                  CT      0        45.09942         0.00097         0.00353         1.08648         9.85226         0.10000
                  CT      0        45.09942         0.00097         0.00353  <- minimum found
                  CT   ------------------------------------
PPPM initialization ...
  G vector (1/distance) = 0.289562
  grid = 8 8 8
  stencil order = 5
  estimated absolute RMS force accuracy = 0.000256818
  estimated relative force accuracy = 1.7835e-05
  using double precision FFTs
  3d grid and FFT values/proc = 2197 512
       8            0   -108.40726   -17.149092    91.258168   -62.248517   -46.158743 
                  CT   ------------------------------------
                  CT   iter               G    max|dG/dq_i|         |dG/dq|        max|q_i|      max|phi_i|            beta
PPPM initialization ...
  G vector (1/distance) = 0.289562
  grid = 8 8 8
  stencil order = 5
  estimated absolute RMS force accuracy = 0.000256818
  estimated relative force accuracy = 1.7835e-05
  using double precision FFTs
  3d grid and FFT values/proc = 2197 512
FixBSCT_fdf: short- and long-range Coulomb energies: -46.158743 0.000000
FixBSCT_fdf: Coulomb energy from sum of q*phi: -111.804030
                  CT      0        45.09942         0.00097         0.00353         1.08648         9.85226         0.10000
                  CT      0        45.09942         0.00097         0.00353  <- minimum found
                  CT   ------------------------------------
PPPM initialization ...
  G vector (1/distance) = 0.289562
  grid = 8 8 8
  stencil order = 5
  estimated absolute RMS force accuracy = 0.000256818
  estimated relative force accuracy = 1.7835e-05
  using double precision FFTs
  3d grid and FFT values/proc = 2197 512
       9            0   -108.40726   -17.149092    91.258168   -62.248517   -46.158743 
                  CT   ------------------------------------
                  CT   iter               G    max|dG/dq_i|         |dG/dq|        max|q_i|      max|phi_i|            beta
PPPM initialization ...
  G vector (1/distance) = 0.289562
  grid = 8 8 8
  stencil order = 5
  estimated absolute RMS force accuracy = 0.000256818
  estimated relative force accuracy = 1.7835e-05
  using double precision FFTs
  3d grid and FFT values/proc = 2197 512
FixBSCT_fdf: short- and long-range Coulomb energies: -46.158743 0.000000
FixBSCT_fdf: Coulomb energy from sum of q*phi: -111.805159
                  CT      0        45.09942         0.00467         0.01073         1.08648         9.85462         0.10000
PPPM initialization ...
  G vector (1/distance) = 0.289562
  grid = 8 8 8
  stencil order = 5
  estimated absolute RMS force accuracy = 0.000256813
  estimated relative force accuracy = 1.78347e-05
  using double precision FFTs
  3d grid and FFT values/proc = 2197 512
FixBSCT_fdf: short- and long-range Coulomb energies: -46.157929 0.000000
FixBSCT_fdf: Coulomb energy from sum of q*phi: -111.803229
                  CT      1        45.09828         0.00306         0.00720         1.08653         9.85362         0.10000
FixBSCT_fdf: short- and long-range Coulomb energies: -46.156685 0.000000
FixBSCT_fdf: Coulomb energy from sum of q*phi: -111.800222
                  CT      2        45.09657         0.00194         0.00546         1.08656         9.85333         0.10000
FixBSCT_fdf: short- and long-range Coulomb energies: -46.153485 0.000000
FixBSCT_fdf: Coulomb energy from sum of q*phi: -111.792420
                  CT      3        45.09225         0.00106         0.00329         1.08661         9.85363         0.10000
FixBSCT_fdf: short- and long-range Coulomb energies: -46.150693 0.000000
FixBSCT_fdf: Coulomb energy from sum of q*phi: -111.785612
                  CT      4        45.08851         0.00063         0.00234         1.08664         9.85344         0.10000
                  CT      4        45.08851         0.00063         0.00234  <- minimum found
                  CT   ------------------------------------
PPPM initialization ...
  G vector (1/distance) = 0.289562
  grid = 8 8 8
  stencil order = 5
  estimated absolute RMS force accuracy = 0.000256772
  estimated relative force accuracy = 1.78319e-05
  using double precision FFTs
  3d grid and FFT values/proc = 2197 512
      10            0   -108.38832   -17.149116    91.239201   -62.237622   -46.150695 
                  CT   ------------------------------------
                  CT   iter               G    max|dG/dq_i|         |dG/dq|        max|q_i|      max|phi_i|            beta
PPPM initialization ...
  G vector (1/distance) = 0.289562
  grid = 8 8 8
  stencil order = 5
  estimated absolute RMS force accuracy = 0.000256772
  estimated relative force accuracy = 1.78319e-05
  using double precision FFTs
  3d grid and FFT values/proc = 2197 512
FixBSCT_fdf: short- and long-range Coulomb energies: -46.150695 0.000000
FixBSCT_fdf: Coulomb energy from sum of q*phi: -111.784713
                  CT      0        45.08851         0.00645         0.01548         1.08664         9.85107         0.10000
PPPM initialization ...
  G vector (1/distance) = 0.289562
  grid = 8 8 8
  stencil order = 5
  estimated absolute RMS force accuracy = 0.000256768
  estimated relative force accuracy = 1.78316e-05
  using double precision FFTs
  3d grid and FFT values/proc = 2197 512
FixBSCT_fdf: short- and long-range Coulomb energies: -46.149905 0.000000
FixBSCT_fdf: Coulomb energy from sum of q*phi: -111.782856
                  CT      1        45.08760         0.00442         0.01065         1.08659         9.85129         0.10000
FixBSCT_fdf: short- and long-range Coulomb energies: -46.148613 0.000000
FixBSCT_fdf: Coulomb energy from sum of q*phi: -111.779788
                  CT      2        45.08610         0.00262         0.00774         1.08654         9.85120         0.10000
FixBSCT_fdf: short- and long-range Coulomb energies: -46.145609 0.000000
FixBSCT_fdf: Coulomb energy from sum of q*phi: -111.772602
                  CT      3        45.08253         0.00132         0.00451         1.08644         9.85065         0.10000
FixBSCT_fdf: short- and long-range Coulomb energies: -46.141908 0.000000
FixBSCT_fdf: Coulomb energy from sum of q*phi: -111.763692
                  CT      4        45.07790         0.00062         0.00264         1.08635         9.85028         0.10000
                  CT      4        45.07790         0.00062         0.00264  <- minimum found
                  CT   ------------------------------------
PPPM initialization ...
  G vector (1/distance) = 0.289562
  grid = 8 8 8
  stencil order = 5
  estimated absolute RMS force accuracy = 0.000256726
  estimated relative force accuracy = 1.78286e-05
  using double precision FFTs
  3d grid and FFT values/proc = 2197 512
      11            0   -108.36821   -17.148402     91.21981   -62.226303    -46.14191 
                  CT   ------------------------------------
                  CT   iter               G    max|dG/dq_i|         |dG/dq|        max|q_i|      max|phi_i|            beta
PPPM initialization ...
  G vector (1/distance) = 0.289562
  grid = 8 8 8
  stencil order = 5
  estimated absolute RMS force accuracy = 0.000256726
  estimated relative force accuracy = 1.78286e-05
  using double precision FFTs
  3d grid and FFT values/proc = 2197 512
FixBSCT_fdf: short- and long-range Coulomb energies: -46.141910 0.000000
FixBSCT_fdf: Coulomb energy from sum of q*phi: -111.763771
                  CT      0        45.07790         0.01185         0.01942         1.08635         9.85028         0.10000
PPPM initialization ...
  G vector (1/distance) = 0.289562
  grid = 8 8 8
  stencil order = 5
  estimated absolute RMS force accuracy = 0.000256722
  estimated relative force accuracy = 1.78284e-05
  using double precision FFTs
  3d grid and FFT values/proc = 2197 512
FixBSCT_fdf: short- and long-range Coulomb energies: -46.141245 0.000000
FixBSCT_fdf: Coulomb energy from sum of q*phi: -111.762424
                  CT      1        45.07697         0.00843         0.01961         1.08633         9.85270         0.10000
FixBSCT_fdf: short- and long-range Coulomb energies: -46.140944 0.000000
FixBSCT_fdf: Coulomb energy from sum of q*phi: -111.761725
                  CT      2        45.07655         0.00698         0.01599         1.08635         9.85193         0.10000
FixBSCT_fdf: short- and long-range Coulomb energies: -46.139625 0.000000
FixBSCT_fdf: Coulomb energy from sum of q*phi: -111.758638
                  CT      3        45.07474         0.00428         0.00894         1.08636         9.85083         0.10000
FixBSCT_fdf: short- and long-range Coulomb energies: -46.137812 0.000000
FixBSCT_fdf: Coulomb energy from sum of q*phi: -111.754402
                  CT      4        45.07225         0.00183         0.00562         1.08633         9.85192         0.10000
FixBSCT_fdf: short- and long-range Coulomb energies: -46.136330 0.000000
FixBSCT_fdf: Coulomb energy from sum of q*phi: -111.751002
                  CT      5        45.07018         0.00110         0.00401         1.08636         9.85155         0.10000
FixBSCT_fdf: short- and long-range Coulomb energies: -46.133741 0.000000
FixBSCT_fdf: Coulomb energy from sum of q*phi: -111.745092
                  CT      6        45.06657         0.00087         0.00227         1.08640         9.85109         0.10000
                  CT      6        45.06657         0.00087         0.00227  <- minimum found
                  CT   ------------------------------------
PPPM initialization ...
  G vector (1/distance) = 0.289562
  grid = 8 8 8
  stencil order = 5
  estimated absolute RMS force accuracy = 0.000256683
  estimated relative force accuracy = 1.78256e-05
  using double precision FFTs
  3d grid and FFT values/proc = 2197 512
      12            0   -108.34952   -17.149212    91.200311    -62.21578   -46.133743 
                  CT   ------------------------------------
                  CT   iter               G    max|dG/dq_i|         |dG/dq|        max|q_i|      max|phi_i|            beta
PPPM initialization ...
  G vector (1/distance) = 0.289562
  grid = 8 8 8
  stencil order = 5
  estimated absolute RMS force accuracy = 0.000256683
  estimated relative force accuracy = 1.78256e-05
  using double precision FFTs
  3d grid and FFT values/proc = 2197 512
FixBSCT_fdf: short- and long-range Coulomb energies: -46.133743 0.000000
FixBSCT_fdf: Coulomb energy from sum of q*phi: -111.744789
                  CT      0        45.06657         0.00662         0.01476         1.08640         9.84936         0.10000
PPPM initialization ...
  G vector (1/distance) = 0.289562
  grid = 8 8 8
  stencil order = 5
  estimated absolute RMS force accuracy = 0.000256681
  estimated relative force accuracy = 1.78255e-05
  using double precision FFTs
  3d grid and FFT values/proc = 2197 512
FixBSCT_fdf: short- and long-range Coulomb energies: -46.133355 0.000000
FixBSCT_fdf: Coulomb energy from sum of q*phi: -111.743853
                  CT      1        45.06600         0.00374         0.00793         1.08634         9.85095         0.10000
FixBSCT_fdf: short- and long-range Coulomb energies: -46.132828 0.000000
FixBSCT_fdf: Coulomb energy from sum of q*phi: -111.742643
                  CT      2        45.06522         0.00201         0.00539         1.08633         9.85103         0.10000
FixBSCT_fdf: short- and long-range Coulomb energies: -46.131812 0.000000
FixBSCT_fdf: Coulomb energy from sum of q*phi: -111.740355
                  CT      3        45.06372         0.00100         0.00306         1.08633         9.85000         0.10000
FixBSCT_fdf: short- and long-range Coulomb energies: -46.130983 0.000000
FixBSCT_fdf: Coulomb energy from sum of q*phi: -111.738483
                  CT      4        45.06254         0.00084         0.00215         1.08628         9.84967         0.10000
                  CT      4        45.06254         0.00084         0.00215  <- minimum found
                  CT   ------------------------------------
PPPM initialization ...
  G vector (1/distance) = 0.289562
  grid = 8 8 8
  stencil order = 5
  estimated absolute RMS force accuracy = 0.000256668
  estimated relative force accuracy = 1.78246e-05
  using double precision FFTs
  3d grid and FFT values/proc = 2197 512
      13            0   -108.34315   -17.149629    91.193524    -62.21217   -46.130983 
                  CT   ------------------------------------
                  CT   iter               G    max|dG/dq_i|         |dG/dq|        max|q_i|      max|phi_i|            beta
PPPM initialization ...
  G vector (1/distance) = 0.289562
  grid = 8 8 8
  stencil order = 5
  estimated absolute RMS force accuracy = 0.000256668
  estimated relative force accuracy = 1.78246e-05
  using double precision FFTs
  3d grid and FFT values/proc = 2197 512
FixBSCT_fdf: short- and long-range Coulomb energies: -46.130983 0.000000
FixBSCT_fdf: Coulomb energy from sum of q*phi: -111.738483
                  CT      0        45.06254         0.00084         0.00215         1.08628         9.84967         0.10000
                  CT      0        45.06254         0.00084         0.00215  <- minimum found
                  CT   ------------------------------------
PPPM initialization ...
  G vector (1/distance) = 0.289562
  grid = 8 8 8
  stencil order = 5
  estimated absolute RMS force accuracy = 0.000256668
  estimated relative force accuracy = 1.78246e-05
  using double precision FFTs
  3d grid and FFT values/proc = 2197 512
      14            0   -108.34315   -17.149629    91.193524    -62.21217   -46.130983 
                  CT   ------------------------------------
                  CT   iter               G    max|dG/dq_i|         |dG/dq|        max|q_i|      max|phi_i|            beta
PPPM initialization ...
  G vector (1/distance) = 0.289562
  grid = 8 8 8
  stencil order = 5
  estimated absolute RMS force accuracy = 0.000256668
  estimated relative force accuracy = 1.78246e-05
  using double precision FFTs
  3d grid and FFT values/proc = 2197 512
FixBSCT_fdf: short- and long-range Coulomb energies: -46.130983 0.000000
FixBSCT_fdf: Coulomb energy from sum of q*phi: -111.738631
                  CT      0        45.06254         0.00146         0.00441         1.08628         9.85025         0.10000
PPPM initialization ...
  G vector (1/distance) = 0.289562
  grid = 8 8 8
  stencil order = 5
  estimated absolute RMS force accuracy = 0.000256667
  estimated relative force accuracy = 1.78245e-05
  using double precision FFTs
  3d grid and FFT values/proc = 2197 512
FixBSCT_fdf: short- and long-range Coulomb energies: -46.130731 0.000000
FixBSCT_fdf: Coulomb energy from sum of q*phi: -111.736548
                  CT      1        45.06223         0.00881         0.02225         1.08626         9.85166         0.10000
FixBSCT_fdf: short- and long-range Coulomb energies: -46.130704 0.000000
FixBSCT_fdf: Coulomb energy from sum of q*phi: -111.736504
                  CT      2        45.06217         0.00853         0.02143         1.08627         9.85153         0.10000
FixBSCT_fdf: short- and long-range Coulomb energies: -46.130737 0.000000
FixBSCT_fdf: Coulomb energy from sum of q*phi: -111.736564
                  CT      3        45.06224         0.00877         0.02209         1.08627         9.85162         0.10000
FixBSCT_fdf: short- and long-range Coulomb energies: -46.129947 0.000000
FixBSCT_fdf: Coulomb energy from sum of q*phi: -111.735035
                  CT      4        45.06076         0.00480         0.01235         1.08627         9.85064         0.10000
FixBSCT_fdf: short- and long-range Coulomb energies: -46.128894 0.000000
FixBSCT_fdf: Coulomb energy from sum of q*phi: -111.732831
                  CT      5        45.05894         0.00138         0.00443         1.08627         9.84976         0.10000
FixBSCT_fdf: short- and long-range Coulomb energies: -46.128294 0.000000
FixBSCT_fdf: Coulomb energy from sum of q*phi: -111.731459
                  CT      6        45.05801         0.00094         0.00299         1.08628         9.84964         0.10000
                  CT      6        45.05801         0.00094         0.00299  <- minimum found
                  CT   ------------------------------------
PPPM initialization ...
  G vector (1/distance) = 0.289562
  grid = 8 8 8
  stencil order = 5
  estimated absolute RMS force accuracy = 0.000256652
  estimated relative force accuracy = 1.78235e-05
  using double precision FFTs
  3d grid and FFT values/proc = 2197 512
      15            0   -108.33688   -17.150581    91.186301   -62.208587   -46.128295 
Loop time of 0.392001 on 1 procs for 15 steps with 64 atoms

Pair  time (%) = 0.0156012 (3.97988)
Kspce time (%) = 0 (0)
Neigh time (%) = 0 (0)
Comm  time (%) = 0 (0)
Outpt time (%) = 0.0623999 (15.9183)
Other time (%) = 0.314 (80.1018)

Nlocal:    64 ave 64 max 64 min
Histogram: 1 0 0 0 0 0 0 0 0 0
Nghost:    1664 ave 1664 max 1664 min
Histogram: 1 0 0 0 0 0 0 0 0 0
Neighs:    8000 ave 8000 max 8000 min
Histogram: 1 0 0 0 0 0 0 0 0 0

Total # of neighbors = 8000
Ave neighs/atom = 125
Neighbor list builds = 0
Dangerous builds = 0
