LAMMPS (7 Aug 2019)
  using 1 OpenMP thread(s) per MPI task
Switching to CHARMM coulomb energy conversion constant (../pair_lj_charmmfsw_coul_charmmfsh.cpp:54)
Reading data file ...
  orthogonal box = (0.956923 0.55248 1.18849) to (29.6646 30.3864 59.3162)
  1 by 1 by 1 MPI processor grid
  reading atoms ...
  1441 atoms
  reading velocities ...
  1441 velocities
Finding 1-2 1-3 1-4 neighbors ...
  special bond factors lj:   0          0          0         
  special bond factors coul: 0          0          0         
  0 = max # of 1-2 neighbors
  0 = max # of 1-3 neighbors
  0 = max # of 1-4 neighbors
  1 = max # of special neighbors
  special bonds CPU = 0.000340557 secs
  read_data CPU = 0.0054308 secs

    Ion at initial distance dz = 15.0 ang approaches substrate
    at velocity v = -0.01 ang / fs over 750 time steps
    of 2.0 fs each.
                
1440 atoms in group substrate
1 atoms in group ion
1441 atoms in group bsct_atoms

    Uniformly distribute counter charge Q = -1.0 onto
    1440 substrate atoms at partial charge q = -6.9444e-04 each
                
Setting atom values ...
  1440 settings made for charge
Setting atom values ...
  1 settings made for charge
Neighbor list info ...
  update every 1 steps, delay 2 steps, check yes
  max neighbors/atom: 2000, page size: 100000
  master list distance cutoff = 14
  ghost atom cutoff = 14
  binsize = 7, bins = 5 5 9
  1 neighbor lists, perpetual/occasional/extra = 1 0 0
  (1) pair lj/charmmfsw/coul/charmmfsh/bsct, perpetual
      attributes: half, newton on
      pair build: half/bin/newton
      stencil: half/bin/3d/newton
      bin: standard
Setting up Verlet run ...
  Unit style    : real
  Current step  : 0
  Time step     : 2
Per MPI rank memory allocation (min/avg/max) = 9.626 | 9.626 | 9.626 Mbytes
Step Temp Press TotEng KinEng PotEng f_ct E_bond E_angle E_dihed E_impro E_pair E_vdwl E_coul E_long E_tail 
       0               0 1454.1853987471 -59496.689976455               0 -59496.689976455               3               0               0               0               0 -59499.689976455 -59500.533626224 0.84364976842897               0               0 
       1 0.64005416462705 1456.7080391797 -59493.942629419 2.7473470365091 -59496.689976455               3               0               0               0               0 -59499.689976455 -59500.533626224 0.84364976842897               0               0 
       2 0.64005416462705 1456.7080391797 -59493.942629419 2.7473470365091 -59496.689976455               3               0               0               0               0 -59499.689976455 -59500.533626224 0.84364976842897               0               0 
       3 0.64005416462705 1456.7080391797 -59493.942629419 2.7473470365091 -59496.689976455               3               0               0               0               0 -59499.689976455 -59500.533626224 0.84364976842897               0               0 
       4 0.64005416462705 1456.7080391797 -59493.942629419 2.7473470365091 -59496.689976455               3               0               0               0               0 -59499.689976455 -59500.533626224 0.84364976842897               0               0 
       5 0.64005416462705 1456.7080391797 -59493.942629419 2.7473470365091 -59496.689976455               3               0               0               0               0 -59499.689976455 -59500.533626224 0.84364976842897               0               0 
       6 0.64005416462705 1456.7080391797 -59493.942629419 2.7473470365091 -59496.689976455               3               0               0               0               0 -59499.689976455 -59500.533626224 0.84364976842897               0               0 
       7 0.64005416462705 1456.7080391797 -59493.942629419 2.7473470365091 -59496.689976455               3               0               0               0               0 -59499.689976455 -59500.533626224 0.84364976842897               0               0 
       8 0.64005416462705 1456.7080391797 -59493.942629419 2.7473470365091 -59496.689976455               3               0               0               0               0 -59499.689976455 -59500.533626224 0.84364976842897               0               0 
       9 0.64005416462705 1456.7080391797 -59493.942629419 2.7473470365091 -59496.689976455               3               0               0               0               0 -59499.689976455 -59500.533626224 0.84364976842897               0               0 
      10 0.64005416462705 1456.7080391797 -59493.942629419 2.7473470365091 -59496.689976455               3               0               0               0               0 -59499.689976455 -59500.533626224 0.84364976842897               0               0 
      11 0.64005416462705 1456.7080391797 -59493.942629419 2.7473470365091 -59496.689976455               3               0               0               0               0 -59499.689976455 -59500.533626224 0.84364976842897               0               0 
      12 0.64005416462705 1456.7080391797 -59493.942629419 2.7473470365091 -59496.689976455               3               0               0               0               0 -59499.689976455 -59500.533626224 0.84364976842897               0               0 
      13 0.64005416462705 1456.7080391797 -59493.942629419 2.7473470365091 -59496.689976455               3               0               0               0               0 -59499.689976455 -59500.533626224 0.84364976842897               0               0 
      14 0.64005416462705 1456.7080391797 -59493.942629419 2.7473470365091 -59496.689976455               3               0               0               0               0 -59499.689976455 -59500.533626224 0.84364976842897               0               0 
      15 0.64005416462705 1456.7080391797 -59493.942629419 2.7473470365091 -59496.689976455               3               0               0               0               0 -59499.689976455 -59500.533626224 0.84364976842897               0               0 
      16 0.64005416462705 1456.7080391797 -59493.942629419 2.7473470365091 -59496.689976455               3               0               0               0               0 -59499.689976455 -59500.533626224 0.84364976842897               0               0 
      17 0.64005416462705 1456.7080391797 -59493.942629419 2.7473470365091 -59496.689976455               3               0               0               0               0 -59499.689976455 -59500.533626224 0.84364976842897               0               0 
      18 0.64005416462705 1456.7080391797 -59493.942629419 2.7473470365091 -59496.689976455               3               0               0               0               0 -59499.689976455 -59500.533626224 0.84364976842897               0               0 
      19 0.64005416462705 1456.7080391797 -59493.942629419 2.7473470365091 -59496.689976455               3               0               0               0               0 -59499.689976455 -59500.533626224 0.84364976842897               0               0 
      20 0.64005416462705 1456.7080391797 -59493.942629419 2.7473470365091 -59496.689976455               3               0               0               0               0 -59499.689976455 -59500.533626224 0.84364976842897               0               0 
      21 0.64005416462705 1456.7080391797 -59493.942629419 2.7473470365091 -59496.689976455               3               0               0               0               0 -59499.689976455 -59500.533626224 0.84364976842897               0               0 
      22 0.64005416462705 1456.7080391797 -59493.942629419 2.7473470365091 -59496.689976455               3               0               0               0               0 -59499.689976455 -59500.533626224 0.84364976842897               0               0 
      23 0.64005416462705 1456.7080391797 -59493.942629419 2.7473470365091 -59496.689976455               3               0               0               0               0 -59499.689976455 -59500.533626224 0.84364976842897               0               0 
      24 0.64005416462705 1456.7080391797 -59493.942629419 2.7473470365091 -59496.689976455               3               0               0               0               0 -59499.689976455 -59500.533626224 0.84364976842897               0               0 
      25 0.64005416462705 1456.7080391797 -59493.942629419 2.7473470365091 -59496.689976455               3               0               0               0               0 -59499.689976455 -59500.533626224 0.84364976842897               0               0 
      26 0.64005416462705 1456.7080391797 -59493.942629419 2.7473470365091 -59496.689976455               3               0               0               0               0 -59499.689976455 -59500.533626224 0.84364976842897               0               0 
      27 0.64005416462705 1456.7080391797 -59493.942629419 2.7473470365091 -59496.689976455               3               0               0               0               0 -59499.689976455 -59500.533626224 0.84364976842897               0               0 
      28 0.64005416462705 1456.7080391797 -59493.942629419 2.7473470365091 -59496.689976455               3               0               0               0               0 -59499.689976455 -59500.533626224 0.84364976842897               0               0 
      29 0.64005416462705 1456.7080391797 -59493.942629419 2.7473470365091 -59496.689976455               3               0               0               0               0 -59499.689976455 -59500.533626224 0.84364976842897               0               0 
      30 0.64005416462705 1456.7080391797 -59493.942629419 2.7473470365091 -59496.689976455               3               0               0               0               0 -59499.689976455 -59500.533626224 0.84364976842897               0               0 
      31 0.64005416462705 1456.7080391797 -59493.942629419 2.7473470365091 -59496.689976455               3               0               0               0               0 -59499.689976455 -59500.533626224 0.84364976842897               0               0 
      32 0.64005416462705 1456.7080391797 -59493.942629419 2.7473470365091 -59496.689976455               3               0               0               0               0 -59499.689976455 -59500.533626224 0.84364976842897               0               0 
      33 0.64005416462705 1456.7080391797 -59493.942629419 2.7473470365091 -59496.689976455               3               0               0               0               0 -59499.689976455 -59500.533626224 0.84364976842897               0               0 
      34 0.64005416462705 1456.7080391797 -59493.942629419 2.7473470365091 -59496.689976455               3               0               0               0               0 -59499.689976455 -59500.533626224 0.84364976842897               0               0 
      35 0.64005416462705 1456.7080391797 -59493.942629419 2.7473470365091 -59496.689976455               3               0               0               0               0 -59499.689976455 -59500.533626224 0.84364976842897               0               0 
      36 0.64005416462705 1456.7080391797 -59493.942629419 2.7473470365091 -59496.689976455               3               0               0               0               0 -59499.689976455 -59500.533626224 0.84364976842897               0               0 
      37 0.64005416462705 1456.7080391797 -59493.942629419 2.7473470365091 -59496.689976455               3               0               0               0               0 -59499.689976455 -59500.533626224 0.84364976842897               0               0 
      38 0.64005416462705 1456.7080391797 -59493.942629419 2.7473470365091 -59496.689976455               3               0               0               0               0 -59499.689976455 -59500.533626224 0.84364976842897               0               0 
      39 0.64005416462705 1456.7080391797 -59493.942629419 2.7473470365091 -59496.689976455               3               0               0               0               0 -59499.689976455 -59500.533626224 0.84364976842897               0               0 
      40 0.64005416462705 1456.7080391797 -59493.942629419 2.7473470365091 -59496.689976455               3               0               0               0               0 -59499.689976455 -59500.533626224 0.84364976842897               0               0 
      41 0.64005416462705 1456.7080391797 -59493.942629419 2.7473470365091 -59496.689976455               3               0               0               0               0 -59499.689976455 -59500.533626224 0.84364976842897               0               0 
      42 0.64005416462705 1456.7080391797 -59493.942629419 2.7473470365091 -59496.689976455               3               0               0               0               0 -59499.689976455 -59500.533626224 0.84364976842897               0               0 
      43 0.64005416462705 1456.7080391797 -59493.942629419 2.7473470365091 -59496.689976455               3               0               0               0               0 -59499.689976455 -59500.533626224 0.84364976842897               0               0 
      44 0.64005416462705 1456.7080391797 -59493.942629419 2.7473470365091 -59496.689976455               3               0               0               0               0 -59499.689976455 -59500.533626224 0.84364976842897               0               0 
      45 0.64005416462705 1456.7080391797 -59493.942629419 2.7473470365091 -59496.689976455               3               0               0               0               0 -59499.689976455 -59500.533626224 0.84364976842897               0               0 
      46 0.64005416462705 1456.7080391797 -59493.942629419 2.7473470365091 -59496.689976455               3               0               0               0               0 -59499.689976455 -59500.533626224 0.84364976842897               0               0 
      47 0.64005416462705 1456.7080391797 -59493.942629419 2.7473470365091 -59496.689976455               3               0               0               0               0 -59499.689976455 -59500.533626224 0.84364976842897               0               0 
      48 0.64005416462705 1456.7080391797 -59493.942629419 2.7473470365091 -59496.689976455               3               0               0               0               0 -59499.689976455 -59500.533626224 0.84364976842897               0               0 
      49 0.64005416462705 1456.7080391797 -59493.942629419 2.7473470365091 -59496.689976455               3               0               0               0               0 -59499.689976455 -59500.533626224 0.84364976842897               0               0 
      50 0.64005416462705 1456.7080391797 -59493.942629419 2.7473470365091 -59496.689976455               3               0               0               0               0 -59499.689976455 -59500.533626224 0.84364976842897               0               0 
      51 0.64005416462705 1456.7080391797 -59493.942629419 2.7473470365091 -59496.689976455               3               0               0               0               0 -59499.689976455 -59500.533626224 0.84364976842897               0               0 
      52 0.64005416462705 1456.7080391797 -59493.942629419 2.7473470365091 -59496.689976455               3               0               0               0               0 -59499.689976455 -59500.533626224 0.84364976842897               0               0 
      53 0.64005416462705 1456.7080391797 -59493.942629419 2.7473470365091 -59496.689976455               3               0               0               0               0 -59499.689976455 -59500.533626224 0.84364976842897               0               0 
      54 0.64005416462705 1456.7080391797 -59493.942629419 2.7473470365091 -59496.689976455               3               0               0               0               0 -59499.689976455 -59500.533626224 0.84364976842897               0               0 
      55 0.64005416462705 1456.7080391797 -59493.942629419 2.7473470365091 -59496.689976455               3               0               0               0               0 -59499.689976455 -59500.533626224 0.84364976842897               0               0 
      56 0.64005416462705 1456.7080391797 -59493.942629419 2.7473470365091 -59496.689976455               3               0               0               0               0 -59499.689976455 -59500.533626224 0.84364976842897               0               0 
      57 0.64005416462705 1456.7080391797 -59493.942629419 2.7473470365091 -59496.689976455               3               0               0               0               0 -59499.689976455 -59500.533626224 0.84364976842897               0               0 
      58 0.64005416462705 1456.7080391797 -59493.942629419 2.7473470365091 -59496.689976455               3               0               0               0               0 -59499.689976455 -59500.533626224 0.84364976842897               0               0 
      59 0.64005416462705 1456.7080391797 -59493.942629419 2.7473470365091 -59496.689976455               3               0               0               0               0 -59499.689976455 -59500.533626224 0.84364976842897               0               0 
      60 0.64005416462705 1456.7080391797 -59493.942629419 2.7473470365091 -59496.689976455               3               0               0               0               0 -59499.689976455 -59500.533626224 0.84364976842897               0               0 
      61 0.64005416462705 1456.7080391797 -59493.942629419 2.7473470365091 -59496.689976455               3               0               0               0               0 -59499.689976455 -59500.533626224 0.84364976842897               0               0 
      62 0.64005416462705 1456.7080391797 -59493.942629419 2.7473470365091 -59496.689976455               3               0               0               0               0 -59499.689976455 -59500.533626224 0.84364976842897               0               0 
      63 0.64005416462705 1456.7080391797 -59493.942629419 2.7473470365091 -59496.689976455               3               0               0               0               0 -59499.689976455 -59500.533626224 0.84364976842897               0               0 
      64 0.64005416462705 1456.7080391797 -59493.942629419 2.7473470365091 -59496.689976455               3               0               0               0               0 -59499.689976455 -59500.533626224 0.84364976842897               0               0 
      65 0.64005416462705 1456.7080391797 -59493.942629419 2.7473470365091 -59496.689976455               3               0               0               0               0 -59499.689976455 -59500.533626224 0.84364976842897               0               0 
      66 0.64005416462705 1456.7080391797 -59493.942629419 2.7473470365091 -59496.689976455               3               0               0               0               0 -59499.689976455 -59500.533626224 0.84364976842897               0               0 
      67 0.64005416462705 1456.7080391797 -59493.942629419 2.7473470365091 -59496.689976455               3               0               0               0               0 -59499.689976455 -59500.533626224 0.84364976842897               0               0 
      68 0.64005416462705 1456.7080391797 -59493.942629419 2.7473470365091 -59496.689976455               3               0               0               0               0 -59499.689976455 -59500.533626224 0.84364976842897               0               0 
      69 0.64005416462705 1456.7080391797 -59493.942629419 2.7473470365091 -59496.689976455               3               0               0               0               0 -59499.689976455 -59500.533626224 0.84364976842897               0               0 
      70 0.64005416462705 1456.7080391797 -59493.942629419 2.7473470365091 -59496.689976455               3               0               0               0               0 -59499.689976455 -59500.533626224 0.84364976842897               0               0 
      71 0.64005416462705 1456.7080391797 -59493.942629419 2.7473470365091 -59496.689976455               3               0               0               0               0 -59499.689976455 -59500.533626224 0.84364976842897               0               0 
      72 0.64005416462705 1456.7080391797 -59493.942629419 2.7473470365091 -59496.689976455               3               0               0               0               0 -59499.689976455 -59500.533626224 0.84364976842897               0               0 
      73 0.64005416462705 1456.7080391797 -59493.942629419 2.7473470365091 -59496.689976455               3               0               0               0               0 -59499.689976455 -59500.533626224 0.84364976842897               0               0 
      74 0.64005416462705 1456.7080391797 -59493.942629419 2.7473470365091 -59496.689976455               3               0               0               0               0 -59499.689976455 -59500.533626224 0.84364976842897               0               0 
      75 0.64005416462705 1456.7080391797 -59493.942629419 2.7473470365091 -59496.689976455               3               0               0               0               0 -59499.689976455 -59500.533626224 0.84364976842897               0               0 
      76 0.64005416462705 1456.7080391797 -59493.942629419 2.7473470365091 -59496.689976455               3               0               0               0               0 -59499.689976455 -59500.533626224 0.84364976842897               0               0 
      77 0.64005416462705 1456.7080391797 -59493.942629419 2.7473470365091 -59496.689976455               3               0               0               0               0 -59499.689976455 -59500.533626224 0.84364976842897               0               0 
      78 0.64005416462705 1456.7080391797 -59493.942629419 2.7473470365091 -59496.689976455               3               0               0               0               0 -59499.689976455 -59500.533626224 0.84364976842897               0               0 
      79 0.64005416462705 1456.7080391797 -59493.942629419 2.7473470365091 -59496.689976455               3               0               0               0               0 -59499.689976455 -59500.533626224 0.84364976842897               0               0 
      80 0.64005416462705 1456.7080391797 -59493.942629419 2.7473470365091 -59496.689976455               3               0               0               0               0 -59499.689976455 -59500.533626224 0.84364976842897               0               0 
      81 0.64005416462705 1456.7080391797 -59493.942629419 2.7473470365091 -59496.689976455               3               0               0               0               0 -59499.689976455 -59500.533626224 0.84364976842897               0               0 
      82 0.64005416462705 1456.7080391797 -59493.942629419 2.7473470365091 -59496.689976455               3               0               0               0               0 -59499.689976455 -59500.533626224 0.84364976842897               0               0 
      83 0.64005416462705 1456.7080391797 -59493.942629419 2.7473470365091 -59496.689976455               3               0               0               0               0 -59499.689976455 -59500.533626224 0.84364976842897               0               0 
      84 0.64005416462705 1456.7080391797 -59493.942629419 2.7473470365091 -59496.689976455               3               0               0               0               0 -59499.689976455 -59500.533626224 0.84364976842897               0               0 
      85 0.64005416462705 1456.7080391797 -59493.942629419 2.7473470365091 -59496.689976455               3               0               0               0               0 -59499.689976455 -59500.533626224 0.84364976842897               0               0 
      86 0.64005416462705 1456.7080391797 -59493.942629419 2.7473470365091 -59496.689976455               3               0               0               0               0 -59499.689976455 -59500.533626224 0.84364976842897               0               0 
      87 0.64005416462705 1456.7080391797 -59493.942629419 2.7473470365091 -59496.689976455               3               0               0               0               0 -59499.689976455 -59500.533626224 0.84364976842897               0               0 
      88 0.64005416462705 1456.7080391797 -59493.942629419 2.7473470365091 -59496.689976455               3               0               0               0               0 -59499.689976455 -59500.533626224 0.84364976842897               0               0 
      89 0.64005416462705 1456.7080391797 -59493.942629419 2.7473470365091 -59496.689976455               3               0               0               0               0 -59499.689976455 -59500.533626224 0.84364976842897               0               0 
      90 0.64005416462705 1456.7080391797 -59493.942629419 2.7473470365091 -59496.689976455               3               0               0               0               0 -59499.689976455 -59500.533626224 0.84364976842897               0               0 
      91 0.64005416462705 1456.7080391797 -59493.942629419 2.7473470365091 -59496.689976455               3               0               0               0               0 -59499.689976455 -59500.533626224 0.84364976842897               0               0 
      92 0.64005416462705 1456.7080391797 -59493.942629419 2.7473470365091 -59496.689976455               3               0               0               0               0 -59499.689976455 -59500.533626224 0.84364976842897               0               0 
      93 0.64005416462705 1456.7080391797 -59493.942629419 2.7473470365091 -59496.689976455               3               0               0               0               0 -59499.689976455 -59500.533626224 0.84364976842897               0               0 
      94 0.64005416462705 1456.7080391797 -59493.942629419 2.7473470365091 -59496.689976455               3               0               0               0               0 -59499.689976455 -59500.533626224 0.84364976842897               0               0 
      95 0.64005416462705 1456.7080391797 -59493.942629419 2.7473470365091 -59496.689976455               3               0               0               0               0 -59499.689976455 -59500.533626224 0.84364976842897               0               0 
      96 0.64005416462705 1456.7080391797 -59493.942629419 2.7473470365091 -59496.689976455               3               0               0               0               0 -59499.689976455 -59500.533626224 0.84364976842897               0               0 
      97 0.64005416462705 1456.7080391797 -59493.942629419 2.7473470365091 -59496.689976455               3               0               0               0               0 -59499.689976455 -59500.533626224 0.84364976842897               0               0 
      98 0.64005416462705 1456.7080391797 -59493.942629419 2.7473470365091 -59496.689976455               3               0               0               0               0 -59499.689976455 -59500.533626224 0.84364976842897               0               0 
      99 0.64005416462705 1456.7080391797 -59493.942629419 2.7473470365091 -59496.689976455               3               0               0               0               0 -59499.689976455 -59500.533626224 0.84364976842897               0               0 
     100 0.64005416462705 1456.7080391797 -59493.942629419 2.7473470365091 -59496.689976455               3               0               0               0               0 -59499.689976455 -59500.533626224 0.84364976842897               0               0 
     101 0.64005416462705 1456.7080391797 -59493.942629419 2.7473470365091 -59496.689976455               3               0               0               0               0 -59499.689976455 -59500.533626224 0.84364976842897               0               0 
     102 0.64005416462705 1456.7080391797 -59493.942629419 2.7473470365091 -59496.689976455               3               0               0               0               0 -59499.689976455 -59500.533626224 0.84364976842897               0               0 
     103 0.64005416462705 1456.7080391797 -59493.942629419 2.7473470365091 -59496.689976455               3               0               0               0               0 -59499.689976455 -59500.533626224 0.84364976842897               0               0 
     104 0.64005416462705 1456.7080391797 -59493.942629419 2.7473470365091 -59496.689976455               3               0               0               0               0 -59499.689976455 -59500.533626224 0.84364976842897               0               0 
     105 0.64005416462705 1456.7080391797 -59493.942629419 2.7473470365091 -59496.689976455               3               0               0               0               0 -59499.689976455 -59500.533626224 0.84364976842897               0               0 
     106 0.64005416462705 1456.7080391797 -59493.942629419 2.7473470365091 -59496.689976455               3               0               0               0               0 -59499.689976455 -59500.533626224 0.84364976842897               0               0 
     107 0.64005416462705 1456.7080391797 -59493.942629419 2.7473470365091 -59496.689976455               3               0               0               0               0 -59499.689976455 -59500.533626224 0.84364976842897               0               0 
     108 0.64005416462705 1456.7080391797 -59493.942629419 2.7473470365091 -59496.689976455               3               0               0               0               0 -59499.689976455 -59500.533626224 0.84364976842897               0               0 
     109 0.64005416462705 1456.7080391797 -59493.942629419 2.7473470365091 -59496.689976455               3               0               0               0               0 -59499.689976455 -59500.533626224 0.84364976842897               0               0 
     110 0.64005416462705 1456.7080391797 -59493.942629419 2.7473470365091 -59496.689976455               3               0               0               0               0 -59499.689976455 -59500.533626224 0.84364976842897               0               0 
     111 0.64005416462705 1456.7080391797 -59493.942629419 2.7473470365091 -59496.689976455               3               0               0               0               0 -59499.689976455 -59500.533626224 0.84364976842897               0               0 
     112 0.64005416462705 1456.7080391797 -59493.942629419 2.7473470365091 -59496.689976455               3               0               0               0               0 -59499.689976455 -59500.533626224 0.84364976842897               0               0 
     113 0.64005416462705 1456.7080391797 -59493.942629419 2.7473470365091 -59496.689976455               3               0               0               0               0 -59499.689976455 -59500.533626224 0.84364976842897               0               0 
     114 0.64005416462705 1456.7080391797 -59493.942629419 2.7473470365091 -59496.689976455               3               0               0               0               0 -59499.689976455 -59500.533626224 0.84364976842897               0               0 
     115 0.64005416462705 1456.7080391797 -59493.942629419 2.7473470365091 -59496.689976455               3               0               0               0               0 -59499.689976455 -59500.533626224 0.84364976842897               0               0 
     116 0.64005416462705 1456.7080391797 -59493.942629419 2.7473470365091 -59496.689976455               3               0               0               0               0 -59499.689976455 -59500.533626224 0.84364976842897               0               0 
     117 0.64005416462705 1456.7080391797 -59493.942629419 2.7473470365091 -59496.689976455               3               0               0               0               0 -59499.689976455 -59500.533626224 0.84364976842897               0               0 
     118 0.64005416462705 1456.7080391797 -59493.942629419 2.7473470365091 -59496.689976455               3               0               0               0               0 -59499.689976455 -59500.533626224 0.84364976842897               0               0 
     119 0.64005416462705 1456.7080391797 -59493.942629419 2.7473470365091 -59496.689976455               3               0               0               0               0 -59499.689976455 -59500.533626224 0.84364976842897               0               0 
     120 0.64005416462705 1456.7080391797 -59493.942629419 2.7473470365091 -59496.689976455               3               0               0               0               0 -59499.689976455 -59500.533626224 0.84364976842897               0               0 
     121 0.64005416462705 1456.7080391797 -59493.942629419 2.7473470365091 -59496.689976455               3               0               0               0               0 -59499.689976455 -59500.533626224 0.84364976842897               0               0 
     122 0.64005416462705 1456.7080391797 -59493.942629419 2.7473470365091 -59496.689976455               3               0               0               0               0 -59499.689976455 -59500.533626224 0.84364976842897               0               0 
     123 0.64005416462705 1456.7080391797 -59493.942629419 2.7473470365091 -59496.689976455               3               0               0               0               0 -59499.689976455 -59500.533626224 0.84364976842897               0               0 
     124 0.64005416462705 1456.7080391797 -59493.942629419 2.7473470365091 -59496.689976455               3               0               0               0               0 -59499.689976455 -59500.533626224 0.84364976842897               0               0 
     125 0.64005416462705 1456.7080391797 -59493.942629419 2.7473470365091 -59496.689976455               3               0               0               0               0 -59499.689976455 -59500.533626224 0.84364976842897               0               0 
     126 0.64005416462705 1456.7080391797 -59493.942629419 2.7473470365091 -59496.689976455               3               0               0               0               0 -59499.689976455 -59500.533626224 0.84364976842897               0               0 
     127 0.64005416462705 1456.7080391797 -59493.942629419 2.7473470365091 -59496.689976455               3               0               0               0               0 -59499.689976455 -59500.533626224 0.84364976842897               0               0 
     128 0.64005416462705 1456.7080391797 -59493.942629419 2.7473470365091 -59496.689976455               3               0               0               0               0 -59499.689976455 -59500.533626224 0.84364976842897               0               0 
     129 0.64005416462705 1456.7080391797 -59493.942629419 2.7473470365091 -59496.689976455               3               0               0               0               0 -59499.689976455 -59500.533626224 0.84364976842897               0               0 
     130 0.64005416462705 1456.7080391797 -59493.942629419 2.7473470365091 -59496.689976455               3               0               0               0               0 -59499.689976455 -59500.533626224 0.84364976842897               0               0 
     131 0.64005416462705 1456.7080391797 -59493.942629419 2.7473470365091 -59496.689976455               3               0               0               0               0 -59499.689976455 -59500.533626224 0.84364976842897               0               0 
     132 0.64005416462705 1456.7080391797 -59493.942629419 2.7473470365091 -59496.689976455               3               0               0               0               0 -59499.689976455 -59500.533626224 0.84364976842897               0               0 
     133 0.64005416462705 1456.7080391797 -59493.942629419 2.7473470365091 -59496.689976455               3               0               0               0               0 -59499.689976455 -59500.533626224 0.84364976842897               0               0 
     134 0.64005416462705 1456.7080391797 -59493.942629419 2.7473470365091 -59496.689976455               3               0               0               0               0 -59499.689976455 -59500.533626224 0.84364976842897               0               0 
     135 0.64005416462705 1456.7080391797 -59493.942629419 2.7473470365091 -59496.689976455               3               0               0               0               0 -59499.689976455 -59500.533626224 0.84364976842897               0               0 
     136 0.64005416462705 1456.7080391797 -59493.942629419 2.7473470365091 -59496.689976455               3               0               0               0               0 -59499.689976455 -59500.533626224 0.84364976842897               0               0 
     137 0.64005416462705 1456.7080391797 -59493.942629419 2.7473470365091 -59496.689976455               3               0               0               0               0 -59499.689976455 -59500.533626224 0.84364976842897               0               0 
     138 0.64005416462705 1456.7080391797 -59493.942629419 2.7473470365091 -59496.689976455               3               0               0               0               0 -59499.689976455 -59500.533626224 0.84364976842897               0               0 
     139 0.64005416462705 1456.7080391797 -59493.942629419 2.7473470365091 -59496.689976455               3               0               0               0               0 -59499.689976455 -59500.533626224 0.84364976842897               0               0 
     140 0.64005416462705 1456.7080391797 -59493.942629419 2.7473470365091 -59496.689976455               3               0               0               0               0 -59499.689976455 -59500.533626224 0.84364976842897               0               0 
     141 0.64005416462705 1456.7080391797 -59493.942629419 2.7473470365091 -59496.689976455               3               0               0               0               0 -59499.689976455 -59500.533626224 0.84364976842897               0               0 
     142 0.64005416462705 1456.7080391797 -59493.942629419 2.7473470365091 -59496.689976455               3               0               0               0               0 -59499.689976455 -59500.533626224 0.84364976842897               0               0 
     143 0.64005416462705 1456.7080391797 -59493.942629419 2.7473470365091 -59496.689976455               3               0               0               0               0 -59499.689976455 -59500.533626224 0.84364976842897               0               0 
     144 0.64005416462705 1456.7080391797 -59493.942629419 2.7473470365091 -59496.689976455               3               0               0               0               0 -59499.689976455 -59500.533626224 0.84364976842897               0               0 
     145 0.64005416462705 1456.7080391797 -59493.942629419 2.7473470365091 -59496.689976455               3               0               0               0               0 -59499.689976455 -59500.533626224 0.84364976842897               0               0 
     146 0.64005416462705 1456.7080391797 -59493.942629419 2.7473470365091 -59496.689976455               3               0               0               0               0 -59499.689976455 -59500.533626224 0.84364976842897               0               0 
     147 0.64005416462705 1456.7080391797 -59493.942629419 2.7473470365091 -59496.689976455               3               0               0               0               0 -59499.689976455 -59500.533626224 0.84364976842897               0               0 
     148 0.64005416462705 1456.7080391797 -59493.942629419 2.7473470365091 -59496.689976455               3               0               0               0               0 -59499.689976455 -59500.533626224 0.84364976842897               0               0 
     149 0.64005416462705 1456.7080391797 -59493.942629419 2.7473470365091 -59496.689976455               3               0               0               0               0 -59499.689976455 -59500.533626224 0.84364976842897               0               0 
     150 0.64005416462705 1456.7080391797 -59493.942629419 2.7473470365091 -59496.689976455               3               0               0               0               0 -59499.689976455 -59500.533626224 0.84364976842897               0               0 
     151 0.64005416462705 1456.7080391797 -59493.942629419 2.7473470365091 -59496.689976455               3               0               0               0               0 -59499.689976455 -59500.533626224 0.84364976842897               0               0 
     152 0.64005416462705 1456.7080391797 -59493.942629419 2.7473470365091 -59496.689976455               3               0               0               0               0 -59499.689976455 -59500.533626224 0.84364976842897               0               0 
     153 0.64005416462705 1456.7080391797 -59493.942629419 2.7473470365091 -59496.689976455               3               0               0               0               0 -59499.689976455 -59500.533626224 0.84364976842897               0               0 
     154 0.64005416462705 1456.7080391797 -59493.942629419 2.7473470365091 -59496.689976455               3               0               0               0               0 -59499.689976455 -59500.533626224 0.84364976842897               0               0 
     155 0.64005416462705 1456.7080391797 -59493.942629419 2.7473470365091 -59496.689976455               3               0               0               0               0 -59499.689976455 -59500.533626224 0.84364976842897               0               0 
     156 0.64005416462705 1456.7080391797 -59493.942629419 2.7473470365091 -59496.689976455               3               0               0               0               0 -59499.689976455 -59500.533626224 0.84364976842897               0               0 
     157 0.64005416462705 1456.7080391797 -59493.942629419 2.7473470365091 -59496.689976455               3               0               0               0               0 -59499.689976455 -59500.533626224 0.84364976842897               0               0 
     158 0.64005416462705 1456.7080391797 -59493.942629419 2.7473470365091 -59496.689976455               3               0               0               0               0 -59499.689976455 -59500.533626224 0.84364976842897               0               0 
     159 0.64005416462705 1456.7080391797 -59493.942629419 2.7473470365091 -59496.689976455               3               0               0               0               0 -59499.689976455 -59500.533626224 0.84364976842897               0               0 
     160 0.64005416462705 1456.7080391797 -59493.942629419 2.7473470365091 -59496.689976455               3               0               0               0               0 -59499.689976455 -59500.533626224 0.84364976842897               0               0 
     161 0.64005416462705 1456.7080391797 -59493.942629419 2.7473470365091 -59496.689976455               3               0               0               0               0 -59499.689976455 -59500.533626224 0.84364976842897               0               0 
     162 0.64005416462705 1456.7080391797 -59493.942629419 2.7473470365091 -59496.689976455               3               0               0               0               0 -59499.689976455 -59500.533626224 0.84364976842897               0               0 
     163 0.64005416462705 1456.7080391797 -59493.942629419 2.7473470365091 -59496.689976455               3               0               0               0               0 -59499.689976455 -59500.533626224 0.84364976842897               0               0 
     164 0.64005416462705 1456.7080391797 -59493.942629419 2.7473470365091 -59496.689976455               3               0               0               0               0 -59499.689976455 -59500.533626224 0.84364976842897               0               0 
     165 0.64005416462705 1456.7080391797 -59493.942629419 2.7473470365091 -59496.689976455               3               0               0               0               0 -59499.689976455 -59500.533626224 0.84364976842897               0               0 
     166 0.64005416462705 1456.7080391797 -59493.942629419 2.7473470365091 -59496.689976455               3               0               0               0               0 -59499.689976455 -59500.533626224 0.84364976842897               0               0 
     167 0.64005416462705 1456.7080391797 -59493.942629419 2.7473470365091 -59496.689976455               3               0               0               0               0 -59499.689976455 -59500.533626224 0.84364976842897               0               0 
     168 0.64005416462705 1456.7080391797 -59493.942629419 2.7473470365091 -59496.689976455               3               0               0               0               0 -59499.689976455 -59500.533626224 0.84364976842897               0               0 
     169 0.64005416462705 1456.7080391797 -59493.942629419 2.7473470365091 -59496.689976455               3               0               0               0               0 -59499.689976455 -59500.533626224 0.84364976842897               0               0 
     170 0.64005416462705 1456.7080391797 -59493.942629419 2.7473470365091 -59496.689976455               3               0               0               0               0 -59499.689976455 -59500.533626224 0.84364976842897               0               0 
     171 0.64005416462705 1456.7080391797 -59493.942629419 2.7473470365091 -59496.689976455               3               0               0               0               0 -59499.689976455 -59500.533626224 0.84364976842897               0               0 
     172 0.64005416462705 1456.7080391797 -59493.942629419 2.7473470365091 -59496.689976455               3               0               0               0               0 -59499.689976455 -59500.533626224 0.84364976842897               0               0 
     173 0.64005416462705 1456.7080391797 -59493.942629419 2.7473470365091 -59496.689976455               3               0               0               0               0 -59499.689976455 -59500.533626224 0.84364976842897               0               0 
     174 0.64005416462705 1456.7080391797 -59493.942629419 2.7473470365091 -59496.689976455               3               0               0               0               0 -59499.689976455 -59500.533626224 0.84364976842897               0               0 
     175 0.64005416462705 1456.7080391797 -59493.942629419 2.7473470365091 -59496.689976455               3               0               0               0               0 -59499.689976455 -59500.533626224 0.84364976842897               0               0 
     176 0.64005416462705 1456.7080391797 -59493.942629419 2.7473470365091 -59496.689976455               3               0               0               0               0 -59499.689976455 -59500.533626224 0.84364976842897               0               0 
     177 0.64005416462705 1456.7080391797 -59493.942629419 2.7473470365091 -59496.689976455               3               0               0               0               0 -59499.689976455 -59500.533626224 0.84364976842897               0               0 
     178 0.64005416462705 1456.7080391797 -59493.942629419 2.7473470365091 -59496.689976455               3               0               0               0               0 -59499.689976455 -59500.533626224 0.84364976842897               0               0 
     179 0.64005416462705 1456.7080391797 -59493.942629419 2.7473470365091 -59496.689976455               3               0               0               0               0 -59499.689976455 -59500.533626224 0.84364976842897               0               0 
     180 0.64005416462705 1456.7080391797 -59493.942629419 2.7473470365091 -59496.689976455               3               0               0               0               0 -59499.689976455 -59500.533626224 0.84364976842897               0               0 
     181 0.64005416462705 1456.7080391797 -59493.942629419 2.7473470365091 -59496.689976455               3               0               0               0               0 -59499.689976455 -59500.533626224 0.84364976842897               0               0 
     182 0.64005416462705 1456.7080391797 -59493.942629419 2.7473470365091 -59496.689976455               3               0               0               0               0 -59499.689976455 -59500.533626224 0.84364976842897               0               0 
     183 0.64005416462705 1456.7080391797 -59493.942629419 2.7473470365091 -59496.689976455               3               0               0               0               0 -59499.689976455 -59500.533626224 0.84364976842897               0               0 
     184 0.64005416462705 1456.7080391797 -59493.942629419 2.7473470365091 -59496.689976455               3               0               0               0               0 -59499.689976455 -59500.533626224 0.84364976842897               0               0 
     185 0.64005416462705 1456.7080391797 -59493.942629419 2.7473470365091 -59496.689976455               3               0               0               0               0 -59499.689976455 -59500.533626224 0.84364976842897               0               0 
     186 0.64005416462705 1456.7080391797 -59493.942629419 2.7473470365091 -59496.689976455               3               0               0               0               0 -59499.689976455 -59500.533626224 0.84364976842897               0               0 
     187 0.64005416462705 1456.7080391797 -59493.942629419 2.7473470365091 -59496.689976455               3               0               0               0               0 -59499.689976455 -59500.533626224 0.84364976842897               0               0 
     188 0.64005416462705 1456.7080391797 -59493.942629419 2.7473470365091 -59496.689976455               3               0               0               0               0 -59499.689976455 -59500.533626224 0.84364976842897               0               0 
     189 0.64005416462705 1456.7080391797 -59493.942629419 2.7473470365091 -59496.689976455               3               0               0               0               0 -59499.689976455 -59500.533626224 0.84364976842897               0               0 
     190 0.64005416462705 1456.7080391797 -59493.942629419 2.7473470365091 -59496.689976455               3               0               0               0               0 -59499.689976455 -59500.533626224 0.84364976842897               0               0 
     191 0.64005416462705 1456.7080391797 -59493.942629419 2.7473470365091 -59496.689976455               3               0               0               0               0 -59499.689976455 -59500.533626224 0.84364976842897               0               0 
     192 0.64005416462705 1456.7080391797 -59493.942629419 2.7473470365091 -59496.689976455               3               0               0               0               0 -59499.689976455 -59500.533626224 0.84364976842897               0               0 
     193 0.64005416462705 1456.7080391797 -59493.942629419 2.7473470365091 -59496.689976455               3               0               0               0               0 -59499.689976455 -59500.533626224 0.84364976842897               0               0 
     194 0.64005416462705 1456.7080391797 -59493.942629419 2.7473470365091 -59496.689976455               3               0               0               0               0 -59499.689976455 -59500.533626224 0.84364976842897               0               0 
     195 0.64005416462705 1456.7080391797 -59493.942629419 2.7473470365091 -59496.689976455               3               0               0               0               0 -59499.689976455 -59500.533626224 0.84364976842897               0               0 
     196 0.64005416462705 1456.7080391797 -59493.942629419 2.7473470365091 -59496.689976455               3               0               0               0               0 -59499.689976455 -59500.533626224 0.84364976842897               0               0 
     197 0.64005416462705 1456.7080391797 -59493.942629419 2.7473470365091 -59496.689976455               3               0               0               0               0 -59499.689976455 -59500.533626224 0.84364976842897               0               0 
     198 0.64005416462705 1456.7080182447 -59493.942629449 2.7473470365091 -59496.689976486               3               0               0               0               0 -59499.689976486 -59500.533626227 0.84364974144668               0               0 
     199 0.64005416462705 1456.7079886494 -59493.942629594 2.7473470365091 -59496.68997663               3               0               0               0               0 -59499.68997663 -59500.533626242 0.84364961179264               0               0 
     200 0.64005416462705 1456.7079588983 -59493.942629859 2.7473470365091 -59496.689976896               3               0               0               0               0 -59499.689976896 -59500.53362627 0.84364937445825               0               0 
     201 0.64005416462705 1456.7079289899 -59493.942630246 2.7473470365091 -59496.689977283               3               0               0               0               0 -59499.689977283 -59500.533626311 0.84364902890178               0               0 
     202 0.64005416462705 1456.7078989224 -59493.942630755 2.7473470365091 -59496.689977791               3               0               0               0               0 -59499.689977791 -59500.533626366 0.84364857457783               0               0 
     203 0.64005416462705 1456.7078686942 -59493.942631387 2.7473470365091 -59496.689978423               3               0               0               0               0 -59499.689978423 -59500.533626434 0.84364801093733               0               0 
     204 0.64005416462705 1456.7078383037 -59493.942632142 2.7473470365091 -59496.689979179               3               0               0               0               0 -59499.689979179 -59500.533626516 0.84364733742753               0               0 
     205 0.64005416462705  1456.707807749 -59493.942633023 2.7473470365091 -59496.689980059               3               0               0               0               0 -59499.689980059 -59500.533626613 0.84364655349192               0               0 
     206 0.64005416462705 1456.7077770285 -59493.942634028 2.7473470365091 -59496.689981065               3               0               0               0               0 -59499.689981065 -59500.533626723 0.84364565857024               0               0 
     207 0.64005416462705 1456.7077461405 -59493.94263516 2.7473470365091 -59496.689982197               3               0               0               0               0 -59499.689982197 -59500.533626849 0.84364465209843               0               0 
     208 0.64005416462705 1456.7077150831 -59493.942636419 2.7473470365091 -59496.689983456               3               0               0               0               0 -59499.689983456 -59500.533626989 0.8436435335086               0               0 
     209 0.64005416462705 1456.7076838547 -59493.942637806 2.7473470365091 -59496.689984843               3               0               0               0               0 -59499.689984843 -59500.533627145 0.84364230222901               0               0 
     210 0.64005416462705 1456.7076524533 -59493.942639323 2.7473470365091 -59496.689986359               3               0               0               0               0 -59499.689986359 -59500.533627317 0.84364095768401               0               0 
     211 0.64005416462705 1456.7076208772 -59493.942640968 2.7473470365091 -59496.689988005               3               0               0               0               0 -59499.689988005 -59500.533627504 0.84363949929403               0               0 
     212 0.64005416462705 1456.7075891246 -59493.942642745 2.7473470365091 -59496.689989781               3               0               0               0               0 -59499.689989781 -59500.533627708 0.84363792647554               0               0 
     213 0.64005416462705 1456.7075571935 -59493.942644653 2.7473470365091 -59496.68999169               3               0               0               0               0 -59499.68999169 -59500.533627928 0.84363623864101               0               0 
     214 0.64005416462705 1456.7075250822 -59493.942646694 2.7473470365091 -59496.68999373               3               0               0               0               0 -59499.68999373 -59500.533628166 0.84363443519889               0               0 
     215 0.64005416462705 1456.7074433766 -59493.942648896 2.7473470365091 -59496.689995933               3               0               0               0               0 -59499.689995933 -59500.533628423 0.84363249046279               0               0 
     216 0.64005416462705 1456.7072388975 -59493.942651737 2.7473470365091 -59496.689998774               3               0               0               0               0 -59499.689998774 -59500.533628751 0.84362997704225               0               0 
     217 0.64005416462705 1456.7070333729 -59493.942655393 2.7473470365091 -59496.69000243               3               0               0               0               0 -59499.69000243 -59500.533629169 0.84362673874307               0               0 
     218 0.64005416462705 1456.7068267922 -59493.94265987 2.7473470365091 -59496.690006906               3               0               0               0               0 -59499.690006906 -59500.533629678 0.84362277217433               0               0 
     219 0.64005416462705 1456.7066191448 -59493.942665171 2.7473470365091 -59496.690012207               3               0               0               0               0 -59499.690012207 -59500.533630281 0.84361807392452               0               0 
     220 0.64005416462705 1456.7064104199 -59493.942671302 2.7473470365091 -59496.690018339               3               0               0               0               0 -59499.690018339 -59500.533630979 0.84361264056142               0               0 
     221 0.64005416462705 1456.7062006067 -59493.942678269 2.7473470365091 -59496.690025306               3               0               0               0               0 -59499.690025306 -59500.533631774 0.84360646863189               0               0 
     222 0.64005416462705 1456.7059896942 -59493.942686077 2.7473470365091 -59496.690033114               3               0               0               0               0 -59499.690033114 -59500.533632668 0.84359955466179               0               0 
     223 0.64005416462705 1456.7057776712 -59493.942694731 2.7473470365091 -59496.690041768               3               0               0               0               0 -59499.690041768 -59500.533633663 0.84359189515576               0               0 
     224 0.64005416462705 1456.7055645266 -59493.942704237 2.7473470365091 -59496.690051274               3               0               0               0               0 -59499.690051274 -59500.53363476 0.84358348659709               0               0 
     225 0.64005416462705 1456.7053502492  -59493.9427146 2.7473470365091 -59496.690061637               3               0               0               0               0 -59499.690061637 -59500.533635962 0.84357432544757               0               0 
     226 0.64005416462705 1456.7051348274 -59493.942725826 2.7473470365091 -59496.690072863               3               0               0               0               0 -59499.690072863 -59500.533637271 0.84356440814732               0               0 
     227 0.64005416462705 1456.7049182498 -59493.942737921 2.7473470365091 -59496.690084957               3               0               0               0               0 -59499.690084957 -59500.533638688 0.84355373111463               0               0 
     228 0.64005416462705 1456.7047005046 -59493.942750889 2.7473470365091 -59496.690097926               3               0               0               0               0 -59499.690097926 -59500.533640217 0.84354229074581               0               0 
     229 0.64005416462705 1456.7044815802 -59493.942764737 2.7473470365091 -59496.690111774               3               0               0               0               0 -59499.690111774 -59500.533641857 0.84353008341499               0               0 
     230 0.64005416462705 1456.7042614646 -59493.942779471 2.7473470365091 -59496.690126508               3               0               0               0               0 -59499.690126508 -59500.533643613  0.843517105474               0               0 
     231 0.64005416462705 1456.7040401458 -59493.942795096 2.7473470365091 -59496.690142133               3               0               0               0               0 -59499.690142133 -59500.533645486 0.84350335325218               0               0 
     232 0.64005416462705 1456.7038176117 -59493.942811619 2.7473470365091 -59496.690158655               3               0               0               0               0 -59499.690158655 -59500.533647478 0.84348882305622               0               0 
     233 0.64005416462705   1456.70359385 -59493.942829044 2.7473470365091 -59496.690176081               3               0               0               0               0 -59499.690176081 -59500.533649592   0.84347351117               0               0 
     234 0.64005416462705 1456.7033688485 -59493.942847379 2.7473470365091 -59496.690194416               3               0               0               0               0 -59499.690194416 -59500.533651829 0.84345741385436               0               0 
     235 0.64005416462705 1456.7031425945 -59493.942866629 2.7473470365091 -59496.690213666               3               0               0               0               0 -59499.690213666 -59500.533654193 0.84344052734704               0               0 
     236 0.64005416462705 1456.7029150754 -59493.942886801 2.7473470365091 -59496.690233837               3               0               0               0               0 -59499.690233837 -59500.533656685 0.8434228478624               0               0 
     237 0.64005416462705 1456.7026862786  -59493.9429079 2.7473470365091 -59496.690254937               3               0               0               0               0 -59499.690254937 -59500.533659308 0.84340437159129               0               0 
     238 0.64005416462705 1456.7024561911 -59493.942929933 2.7473470365091 -59496.69027697               3               0               0               0               0 -59499.69027697 -59500.533662065 0.84338509470088               0               0 
     239 0.64005416462705 1456.7022247999 -59493.942952907 2.7473470365091 -59496.690299944               3               0               0               0               0 -59499.690299944 -59500.533664957 0.84336501333448               0               0 
     240 0.64005416462705 1456.7019920919 -59493.942976827 2.7473470365091 -59496.690323864               3               0               0               0               0 -59499.690323864 -59500.533667987 0.84334412361132               0               0 
     241 0.64005416462705 1456.7017580538 -59493.943001701 2.7473470365091 -59496.690348737               3               0               0               0               0 -59499.690348737 -59500.533671159 0.84332242162645               0               0 
     242 0.64005416462705 1456.7015226723 -59493.943027534 2.7473470365091 -59496.690374571               3               0               0               0               0 -59499.690374571 -59500.533674474 0.84329990345046               0               0 
     243 0.64005416462705 1456.7012859337 -59493.943054334 2.7473470365091 -59496.69040137               3               0               0               0               0 -59499.69040137 -59500.533677935 0.84327656512938               0               0 
     244 0.64005416462705 1456.7010478245 -59493.943082106 2.7473470365091 -59496.690429143               3               0               0               0               0 -59499.690429143 -59500.533681545 0.84325240268444               0               0 
     245 0.64005416462705 1456.7008083308 -59493.943110859 2.7473470365091 -59496.690457895               3               0               0               0               0 -59499.690457895 -59500.533685307 0.84322741211191               0               0 
     246 0.64005416462705 1456.7005674386 -59493.943140598 2.7473470365091 -59496.690487634               3               0               0               0               0 -59499.690487634 -59500.533689224 0.84320158938289               0               0 
     247 0.64005416462705  1456.700325134 -59493.94317133 2.7473470365091 -59496.690518367               3               0               0               0               0 -59499.690518367 -59500.533693297 0.84317493044314               0               0 
     248 0.64005416462705 1456.7000814026 -59493.943203063 2.7473470365091  -59496.6905501               3               0               0               0               0  -59499.6905501 -59500.533697531 0.84314743121287               0               0 
     249 0.64005416462705 1456.6998362302 -59493.943235804 2.7473470365091 -59496.690582841               3               0               0               0               0 -59499.690582841 -59500.533701928 0.84311908758658               0               0 
     250 0.64005416462705 1456.6995896022 -59493.943269559 2.7473470365091 -59496.690616596               3               0               0               0               0 -59499.690616596 -59500.533706491 0.8430898954328               0               0 
     251 0.64005416462705 1456.6993415039 -59493.943304337 2.7473470365091 -59496.690651373               3               0               0               0               0 -59499.690651373 -59500.533711224 0.84305985059396               0               0 
     252 0.64005416462705 1456.6989666893 -59493.943340323 2.7473470365091 -59496.690687359               3               0               0               0               0 -59499.690687359 -59500.533716147 0.84302878796496               0               0 
     253 0.64005416462705 1456.6985541006 -59493.943377926 2.7473470365091 -59496.690724962               3               0               0               0               0 -59499.690724962 -59500.533721308 0.84299634519209               0               0 
     254 0.64005416462705 1456.6981392758 -59493.943417171 2.7473470365091 -59496.690764207               3               0               0               0               0 -59499.690764207 -59500.53372671 0.84296250309845               0               0 
     255 0.64005416462705 1456.6977221933 -59493.943458067 2.7473470365091 -59496.690805104               3               0               0               0               0 -59499.690805104 -59500.533732359 0.84292725548945               0               0 
     256 0.64005416462705 1456.6973028311 -59493.943500627 2.7473470365091 -59496.690847664               3               0               0               0               0 -59499.690847664 -59500.53373826 0.84289059613611               0               0 
     257 0.64005416462705 1456.6968811674 -59493.943544861 2.7473470365091 -59496.690891897               3               0               0               0               0 -59499.690891897 -59500.533744416 0.84285251877483               0               0 
     258 0.64005416462705 1456.6964571798 -59493.943590779 2.7473470365091 -59496.690937816               3               0               0               0               0 -59499.690937816 -59500.533750833 0.84281301710717               0               0 
     259 0.64005416462705 1456.6960308459 -59493.943638393 2.7473470365091 -59496.690985429               3               0               0               0               0 -59499.690985429 -59500.533757514 0.84277208479959               0               0 
     260 0.64005416462705  1456.695602143 -59493.943687713 2.7473470365091 -59496.69103475               3               0               0               0               0 -59499.69103475 -59500.533764465 0.84272971548331               0               0 
     261 0.64005416462705 1456.6951710483 -59493.943738752 2.7473470365091 -59496.691085789               3               0               0               0               0 -59499.691085789 -59500.533771691 0.84268590275397               0               0 
     262 0.64005416462705 1456.6947375387 -59493.94379152 2.7473470365091 -59496.691138557               3               0               0               0               0 -59499.691138557 -59500.533779197 0.84264064017148               0               0 
     263 0.64005416462705 1456.6943015909 -59493.943846029 2.7473470365091 -59496.691193066               3               0               0               0               0 -59499.691193066 -59500.533786987 0.84259392125977               0               0 
     264 0.64005416462705 1456.6938631814 -59493.943902291 2.7473470365091 -59496.691249327               3               0               0               0               0 -59499.691249327 -59500.533795067 0.84254573950655               0               0 
     265 0.64005416462705 1456.6934222864 -59493.943960316 2.7473470365091 -59496.691307353               3               0               0               0               0 -59499.691307353 -59500.533803441 0.84249608836306               0               0 
     266 0.64005416462705 1456.6929788821 -59493.944020118 2.7473470365091 -59496.691367154               3               0               0               0               0 -59499.691367154 -59500.533812116 0.84244496124387               0               0 
     267 0.64005416462705 1456.6925329442 -59493.944081708 2.7473470365091 -59496.691428744               3               0               0               0               0 -59499.691428744 -59500.533821096 0.8423923515266               0               0 
     268 0.64005416462705 1456.6920844484 -59493.944145098 2.7473470365091 -59496.691492134               3               0               0               0               0 -59499.691492134 -59500.533830387 0.84233825255171               0               0 
     269 0.64005416462705   1456.69163337  -59493.9442103 2.7473470365091 -59496.691557336               3               0               0               0               0 -59499.691557336 -59500.533839994 0.84228265762228               0               0 
     270 0.64005416462705 1456.6911796842 -59493.944277327 2.7473470365091 -59496.691624363               3               0               0               0               0 -59499.691624363 -59500.533849923 0.84222556000368               0               0 
     271 0.64005416462705 1456.6906340564 -59493.944346283 2.7473470365091 -59496.691693319               3               0               0               0               0 -59499.691693319 -59500.53386019 0.84216687102126               0               0 
     272 0.64005416462705 1456.6900194429 -59493.944417592 2.7473470365091 -59496.691764628               3               0               0               0               0 -59499.691764628 -59500.533870843 0.84210621540021               0               0 
     273 0.64005416462705 1456.6894014974 -59493.944491318 2.7473470365091 -59496.691838355               3               0               0               0               0 -59499.691838355 -59500.533881895 0.84204354032303               0               0 
     274 0.64005416462705 1456.6887801886 -59493.944567479 2.7473470365091 -59496.691914515               3               0               0               0               0 -59499.691914515 -59500.533893352 0.84197883736996               0               0 
     275 0.64005416462705 1456.6881554852 -59493.944646088 2.7473470365091 -59496.691993124               3               0               0               0               0 -59499.691993124 -59500.533905222 0.84191209807881               0               0 
     276 0.64005416462705 1456.6875273555 -59493.944727161 2.7473470365091 -59496.692074198               3               0               0               0               0 -59499.692074198 -59500.533917512 0.84184331394479               0               0 
     277 0.64005416462705 1456.6868957677 -59493.944810716 2.7473470365091 -59496.692157752               3               0               0               0               0 -59499.692157752 -59500.533930229 0.84177247642024               0               0 
     278 0.64005416462705 1456.6862606894 -59493.944896767 2.7473470365091 -59496.692243803               3               0               0               0               0 -59499.692243803 -59500.53394338 0.84169957691437               0               0 
     279 0.64005416462705 1456.6856220883 -59493.94498533 2.7473470365091 -59496.692332367               3               0               0               0               0 -59499.692332367 -59500.533956974 0.84162460679311               0               0 
     280 0.64005416462705 1456.6849799315 -59493.945076423 2.7473470365091 -59496.69242346               3               0               0               0               0 -59499.69242346 -59500.533971017 0.84154755737876               0               0 
     281 0.64005416462705  1456.684334186 -59493.945170062 2.7473470365091 -59496.692517098               3               0               0               0               0 -59499.692517098 -59500.533985518 0.84146841994984               0               0 
     282 0.64005416462705 1456.6836848183 -59493.945266263 2.7473470365091  -59496.6926133               3               0               0               0               0  -59499.6926133 -59500.534000485 0.84138718574082               0               0 
     283 0.64005416462705  1456.683031795 -59493.945365044 2.7473470365091 -59496.692712081               3               0               0               0               0 -59499.692712081 -59500.534015926 0.84130384594184               0               0 
     284 0.64005416462705 1456.6823750821 -59493.945466421 2.7473470365091 -59496.692813458               3               0               0               0               0 -59499.692813458 -59500.53403185 0.84121839169854               0               0 
     285 0.64005416462705 1456.6817146454 -59493.945570413 2.7473470365091 -59496.692917449               3               0               0               0               0 -59499.692917449 -59500.534048263 0.84113081411176               0               0 
     286 0.64005416462705 1456.6810504503 -59493.945677035 2.7473470365091 -59496.693024072               3               0               0               0               0 -59499.693024072 -59500.534065176 0.84104110423732               0               0 
     287 0.64005416462705 1456.6803824621 -59493.945786306 2.7473470365091 -59496.693133343               3               0               0               0               0 -59499.693133343 -59500.534082596 0.84094925308575               0               0 
     288 0.64005416462705 1456.6797106456 -59493.945898245 2.7473470365091 -59496.693245281               3               0               0               0               0 -59499.693245281 -59500.534100533 0.84085525162207               0               0 
     289 0.64005416462705 1456.6790349656 -59493.946012868 2.7473470365091 -59496.693359905               3               0               0               0               0 -59499.693359905 -59500.534118995 0.84075909076554               0               0 
     290 0.64005416462705 1456.6783553862 -59493.946130194 2.7473470365091 -59496.693477231               3               0               0               0               0 -59499.693477231 -59500.534137992 0.84066076138937               0               0 
     291 0.64005416462705 1456.6776718715 -59493.946250242 2.7473470365091 -59496.693597279               3               0               0               0               0 -59499.693597279 -59500.534157533 0.84056025432051               0               0 
     292 0.64005416462705 1456.6769843852 -59493.94637303 2.7473470365091 -59496.693720067               3               0               0               0               0 -59499.693720067 -59500.534177627 0.8404575603394               0               0 
     293 0.64005416462705 1456.6762928906 -59493.946498577 2.7473470365091 -59496.693845614               3               0               0               0               0 -59499.693845614 -59500.534198284 0.84035267017967               0               0 
     294 0.64005416462705  1456.675597351 -59493.946626903 2.7473470365091 -59496.693973939               3               0               0               0               0 -59499.693973939 -59500.534219514 0.84024557452793               0               0 
     295 0.64005416462705 1456.6748977289 -59493.946758025 2.7473470365091 -59496.694105062               3               0               0               0               0 -59499.694105062 -59500.534241326 0.84013626402349               0               0 
     296 0.64005416462705  1456.674193987 -59493.946891965 2.7473470365091 -59496.694239001               3               0               0               0               0 -59499.694239001 -59500.53426373 0.84002472925812               0               0 
     297 0.64005416462705 1456.6734860873 -59493.947028741 2.7473470365091 -59496.694375777               3               0               0               0               0 -59499.694375777 -59500.534286738 0.83991096077578               0               0 
     298 0.64005416462705 1456.6727739917 -59493.947168373 2.7473470365091 -59496.69451541               3               0               0               0               0 -59499.69451541 -59500.534310359 0.83979494907233               0               0 
     299 0.64005416462705 1456.6720576617 -59493.947310882 2.7473470365091 -59496.694657919               3               0               0               0               0 -59499.694657919 -59500.534334603 0.83967668459533               0               0 
     300 0.64005416462705 1456.6713370585 -59493.947456288 2.7473470365091 -59496.694803325               3               0               0               0               0 -59499.694803325 -59500.534359483 0.83955615774372               0               0 
     301 0.64005416462705 1456.6706121431 -59493.947604612 2.7473470365091 -59496.694951649               3               0               0               0               0 -59499.694951649 -59500.534385008 0.8394333588676               0               0 
     302 0.64005416462705 1456.6698828759 -59493.947755874 2.7473470365091 -59496.695102911               3               0               0               0               0 -59499.695102911 -59500.534411189 0.83930827826793               0               0 
     303 0.64005416462705 1456.6691492172 -59493.947910096 2.7473470365091 -59496.695257133               3               0               0               0               0 -59499.695257133 -59500.534438039 0.83918090619627               0               0 
     304 0.64005416462705  1456.668411127 -59493.948067299 2.7473470365091 -59496.695414335               3               0               0               0               0 -59499.695414335 -59500.534465568 0.83905123285452               0               0 
[...]
     678 0.64005416462705  1466.206722506 -59494.85143739 2.7473470365091 -59497.598784427               3               0               0               0               0 -59500.598784427 -59500.781700251 0.18291582390813               0               0 
     679 0.64005416462705 1468.0952321739 -59494.600845976 2.7473470365091 -59497.348193013               3               0               0               0               0 -59500.348193013 -59500.52608604 0.17789302653374               0               0 
     680 0.64005416462705 1470.2321300176 -59494.309943784 2.7473470365091 -59497.057290821               3               0               0               0               0 -59500.057290821 -59500.230130367 0.17283954642716               0               0 
     681 0.64005416462705 1472.6502240329 -59493.97309403 2.7473470365091 -59496.720441067               3               0               0               0               0 -59499.720441067 -59499.888196207 0.16775514086654               0               0 
     682 0.64005416462705 1475.3868964529 -59493.583854701 2.7473470365091 -59496.331201738               3               0               0               0               0 -59499.331201738 -59499.493841296 0.16263955786718               0               0 
     683 0.64005416462705 1478.4847834626 -59493.134857414 2.7473470365091 -59495.882204451               3               0               0               0               0 -59498.882204451 -59499.039696987 0.15749253567463               0               0 
     684 0.64005416462705  1481.992562687 -59492.617666936 2.7473470365091 -59495.365013972               3               0               0               0               0 -59498.365013972 -59498.517327775 0.15231380222823               0               0 
     685 0.64005416462705 1485.9658666659 -59492.022618081 2.7473470365091 -59494.769965118               3               0               0               0               0 -59497.769965118 -59497.917068192 0.14710307459303               0               0 
     686 0.64005416462705 1490.4682803919 -59491.338626141 2.7473470365091 -59494.085973178               3               0               0               0               0 -59497.085973178 -59497.227833215 0.14186003769123               0               0 
     687 0.64005416462705 1495.5725549018 -59490.552966749 2.7473470365091 -59493.300313786               3               0               0               0               0 -59496.300313786 -59496.43689765 0.1365838639346               0               0 
     688 0.64005416462705 1501.3624842124 -59489.651017839 2.7473470365091 -59492.398364876               3               0               0               0               0 -59495.398364876 -59495.529638882 0.13127400664378               0               0 
     689 0.64005416462705 1507.9340143226 -59488.61595965 2.7473470365091 -59491.363306687               3               0               0               0               0 -59494.363306687 -59494.489236819 0.12593013203131               0               0 
     690 0.64005416462705 1515.3974087038 -59487.428424374 2.7473470365091 -59490.175771411               3               0               0               0               0 -59493.175771411 -59493.296323303 0.12055189205533               0               0 
     691 0.64005416462705 1523.8795210375 -59486.06608596 2.7473470365091 -59488.813432996               3               0               0               0               0 -59491.813432996 -59491.928571916 0.11513891952741               0               0 
     692 0.64005416462705 1533.5264440563 -59484.503179718 2.7473470365091 -59487.250526754               3               0               0               0               0 -59490.250526754  -59490.3602174 0.1096906461698               0               0 
     693 0.64005416462705 1544.5068188994 -59482.70993811 2.7473470365091 -59485.457285147               3               0               0               0               0 -59488.457285147 -59488.561491719 0.10420657212863               0               0 
     694 0.64005416462705 1557.0153240607 -59480.651928316 2.7473470365091 -59483.399275352               3               0               0               0               0 -59486.399275352 -59486.497961635 0.098686282472498               0               0 
     695 0.64005416462705 1571.2770813153 -59478.289272815 2.7473470365091 -59481.036619851               3               0               0               0               0 -59484.036619851 -59484.129749195 0.093129343459303               0               0 
     696 0.64005416462705 1587.5527616767 -59475.575730737 2.7473470365091 -59478.323077774               3               0               0               0               0 -59481.323077774 -59481.410613075 0.087535301450505               0               0 
     697 0.64005416462705 1606.1446087561 -59472.457613676 2.7473470365091 -59475.204960713               3               0               0               0               0 -59478.204960713 -59478.286864395 0.081903681757133               0               0 
     698 0.64005416462705 1627.4035554095 -59468.872504088 2.7473470365091 -59471.619851124               3               0               0               0               0 -59474.619851124 -59474.696085112 0.076233987412716               0               0 
     699 0.64005416462705 1651.7376454968 -59464.747737878 2.7473470365091 -59467.495084914               3               0               0               0               0 -59470.495084914 -59470.565610612 0.070525697868014               0               0 
     700 0.64005416462705 1679.6220160502 -59459.998604736 2.7473470365091 -59462.745951772               3               0               0               0               0 -59465.745951772 -59465.81073004 0.064778267601932               0               0 
     701 0.64005416462705 1711.6107541523 -59454.526211089 2.7473470365091 -59457.273558126               3               0               0               0               0 -59460.273558126 -59460.33254925 0.058991124642588               0               0 
     702 0.64005416462705 1748.3509956937 -59448.214936429 2.7473470365091 -59450.962283466               3               0               0               0               0 -59453.962283466 -59454.015447135 0.053163668991982               0               0 
     703 0.64005416462705 1790.5997255391 -59440.929401463 2.7473470365091 -59443.676748499               3               0               0               0               0 -59446.676748499 -59446.72404377 0.047295270947194               0               0 
     704 0.64005416462705 1839.2438320127 -59432.510847815 2.7473470365091 -59435.258194851               3               0               0               0               0 -59438.258194851 -59438.29958012 0.041385269310406               0               0 
     705 0.64005416462705 1895.3240897488 -59422.772807108 2.7473470365091 -59425.520154144               3               0               0               0               0 -59428.520154144 -59428.555587114 0.03543296947941               0               0 
     706 0.64005416462705 1960.0638943742 -59411.495910291 2.7473470365091 -59414.243257327               3               0               0               0               0 -59417.243257327 -59417.272694969 0.029437641409537               0               0 
     707 0.64005416462705 2034.9037567308 -59398.421654664 2.7473470365091  -59401.1690017               3               0               0               0               0  -59404.1690017 -59404.192400217 0.023398517437146               0               0 
     708 0.64005416462705 2121.5427596627 -59383.244904743 2.7473470365091 -59385.992251779               3               0               0               0               0 -59388.992251779 -59389.009566558 0.01731477888529               0               0 
     709 0.64005416462705 2221.9885948272 -59365.604851842 2.7473470365091 -59368.352198878               3               0               0               0               0 -59371.352198878 -59371.363384318 0.011185439255632               0               0 
     710 0.64005416462705 2338.6178883768 -59345.07409314 2.7473470365091 -59347.821440176               3               0               0               0               0 -59350.821440176 -59350.826449453 0.0050092767601126               0               0 
     711 0.64005416462705 2474.2496078082 -59321.145411238 2.7473470365091 -59323.892758275               3               0               0               0               0 -59326.892758275 -59326.891543353 -0.0012149214690334               0               0 
     712 0.64005416462705 2632.2332837043 -59293.215736339 2.7473470365091 -59295.963083376               3               0               0               0               0 -59298.963083376 -59298.955595225 -0.0074881509576417               0               0 
     713 0.64005416462705 2816.5569145777 -59260.566648519 2.7473470365091 -59263.313995556               3               0               0               0               0 -59266.313995556 -59266.300184094 -0.013811461494405               0               0 
     714 0.64005416462705 3031.9782254006 -59222.340619439 2.7473470365091 -59225.087966476               3               0               0               0               0 -59228.087966476 -59228.067780515 -0.020185960638454               0               0 
     715 0.64005416462705 3284.1849422772 -59177.511996466 2.7473470365091 -59180.259343503               3               0               0               0               0 -59183.259343503 -59183.232730685 -0.026612817484451               0               0 
     716 0.64005416462705  3579.990960251 -59124.851482337 2.7473470365091 -59127.598829373               3               0               0               0               0 -59130.598829373 -59130.565736106 -0.033093266707487               0               0 
     717 0.64005416462705  3927.577023909 -59062.882547423 2.7473470365091 -59065.62989446               3               0               0               0               0 -59068.62989446 -59068.590265847 -0.039628612911471               0               0 
     718 0.64005416462705 4336.7867540992 -58989.827810132 2.7473470365091 -58992.575157168               3               0               0               0               0 -58995.575157168 -58995.528936933 -0.04622023530783               0               0 
     719 0.64005416462705 4819.4916741599 -58903.542909396 2.7473470365091 -58906.290256432               3               0               0               0               0 -58909.290256432 -58909.23738684 -0.052869592753681               0               0 
     720 0.64005416462705 5390.0424923938 -58801.434739592 2.7473470365091 -58804.182086628               3               0               0               0               0 -58807.182086628 -58807.122508399 -0.059578229181684               0               0 
     721 0.64005416462705 6065.8285156704 -58680.360080382 2.7473470365091 -58683.107427418               3               0               0               0               0 -58686.107427418 -58686.041079639 -0.066347779457233               0               0 
     722 0.64005416462705 6867.9730063141 -58536.499576878 2.7473470365091 -58539.246923914               3               0               0               0               0 -58542.246923914 -58542.173743938 -0.073179975702294               0               0 
     723 0.64005416462705 7822.1999521064 -58365.200636197 2.7473470365091 -58367.947983233               3               0               0               0               0 -58370.947983233 -58370.867906579 -0.080076654129566               0               0 
     724 0.64005416462705 8959.9176282576 -58160.78100866 2.7473470365091 -58163.528355696               3               0               0               0               0 -58166.528355696 -58166.441315934 -0.08703976243522               0               0 
     725 0.64005416462705  10319.57719581 -57916.28248756 2.7473470365091 -57919.029834596               3               0               0               0               0 -57922.029834596 -57921.935763229 -0.094071367803965               0               0 
     726 0.64005416462705 11948.381343114 -57623.161120023 2.7473470365091 -57625.908467059               3               0               0               0               0 -57628.908467059 -57628.807293394 -0.10117366558605               0               0 
     727 0.64005416462705 13904.439893723 -57270.896344685 2.7473470365091 -57273.643691722               3               0               0               0               0 -57276.643691722 -57276.535342733 -0.1083489887127               0               0 
     728 0.64005416462705 16259.498065032 -56846.496253113 2.7473470365091 -56849.243600149               3               0               0               0               0 -56852.243600149 -56852.128000331 -0.11559981792409               0               0 
     729 0.64005416462705 19102.400946565 -56333.869297345 2.7473470365091 -56336.616644381               3               0               0               0               0 -56339.616644381 -56339.493715588 -0.12292879289259               0               0 
     730 0.64005416462705 22543.507861995 -55713.023675515 2.7473470365091 -55715.771022551               3               0               0               0               0 -55718.771022551 -55718.640683827 -0.13033872433394               0               0 
     731 0.64005416462705 26720.336783552 -54959.043559037 2.7473470365091 -54961.790906073               3               0               0               0               0 -54964.790906073 -54964.653073466 -0.13783260721003               0               0 
     732 0.64005416462705 31804.807617932 -54040.775237341 2.7473470365091 -54043.522584377               3               0               0               0               0 -54046.522584377 -54046.377170742 -0.14541363513986               0               0 
     733 0.64005416462705 38012.571785694 -52919.134720893 2.7473470365091 -52921.882067929               3               0               0               0               0 -52924.882067929 -52924.72898267 -0.15308525981891               0               0 
     734 0.64005416462705 45615.075388277 -51544.919390436 2.7473470365091 -51547.666737472               3               0               0               0               0 -51550.666737472 -51550.505886119 -0.16085135356357               0               0 
     735 0.64005416462705 54955.218070684 -49855.967180524 2.7473470365091 -49858.71452756               3               0               0               0               0 -49861.71452756 -49861.545811719 -0.16871584077243               0               0 
     736 0.64005416462705 66467.762403428 -47773.453743282 2.7473470365091 -47776.201090318               3               0               0               0               0 -47779.201090318 -47779.024407436 -0.17668288282969               0               0 
     737 0.64005416462705 80706.047186999 -45197.045731973 2.7473470365091 -45199.793079009               3               0               0               0               0 -45202.793079009 -45202.608322074 -0.18475693516007               0               0 
     738 0.64005416462705  98377.10331966 -41998.529303975 2.7473470365091 -42001.276651012               3               0               0               0               0 -42004.276651012 -42004.08370824 -0.19294277230897               0               0 
     739 0.64005416462705 120388.02242801 -38013.396592654 2.7473470365091 -38016.14393969               3               0               0               0               0 -38019.14393969 -38018.942694174 -0.20124551559335               0               0 
     740 0.64005416462705 147907.46807923 -33029.68420339 2.7473470365091 -33032.431550427               3               0               0               0               0 -33035.431550427 -33035.221879763 -0.20967066363682               0               0 
     741 0.64005416462705 182447.66595111 -26773.095246363 2.7473470365091 -26775.842593399               3               0               0               0               0 -26778.842593399 -26778.624369273 -0.2182241261466               0               0 
     742 0.64005416462705 225974.23323926 -18887.069087119 2.7473470365091 -18889.816434155               3               0               0               0               0 -18892.816434155 -18892.589521894 -0.22691226134222               0               0 
     743 0.64005416462705 281054.05561386 -8905.9460832609 2.7473470365091 -8908.6934302974               3               0               0               0               0 -8911.6934302974 -8911.4576883799 -0.2357419175058               0               0 
     744 0.64005416462705 351055.45174019 3781.3571766734 2.7473470365091 3778.6098296369               3               0               0               0               0 3775.6098296369 3775.8545501161 -0.24472047919461               0               0 
     745 0.64005416462705  440420.6080337 19980.788913503 2.7473470365091 19978.041566467               3               0               0               0               0 19975.041566467 19975.295422386 -0.25385591873909               0               0 
     746 0.64005416462705 555038.49851123 40760.840417918 2.7473470365091 40758.093070881               3               0               0               0               0 40755.093070881 40755.356227735 -0.26315685374689               0               0 
     747 0.64005416462705 702758.38412175 67545.738644313 2.7473470365091 67542.991297276               3               0               0               0               0 67539.991297276 67540.263929888 -0.27263261144806               0               0 
     748 0.64005416462705 894101.24707716 102244.56324281 2.7473470365091 102241.81589578               3               0               0               0               0 102238.81589578 102239.09818924 -0.28229346282809               0               0 
     749 0.64005416462705 1143251.7774395 147431.28313747 2.7473470365091 147428.53579043               3               0               0               0               0 147425.53579043 147425.82794113 -0.29215069283105               0               0 
     750 0.64005416462705 1469450.7714444 206597.46775639 2.7473470365091 206594.72040935               3               0               0               0               0 206591.72040935 206592.02262559 -0.3022162368203               0               0 
Loop time of 16.2214 on 1 procs for 750 steps with 1441 atoms

Performance: 7.989 ns/day, 3.004 hours/ns, 46.235 timesteps/s
99.4% CPU use with 1 MPI tasks x 1 OpenMP threads

MPI task timing breakdown:
Section |  min time  |  avg time  |  max time  |%varavg| %total
---------------------------------------------------------------
Pair    | 8.8838     | 8.8838     | 8.8838     |   0.0 | 54.77
Bond    | 0.00055406 | 0.00055406 | 0.00055406 |   0.0 |  0.00
Neigh   | 0.12791    | 0.12791    | 0.12791    |   0.0 |  0.79
Comm    | 0.031628   | 0.031628   | 0.031628   |   0.0 |  0.19
Output  | 3.1958     | 3.1958     | 3.1958     |   0.0 | 19.70
Modify  | 3.9642     | 3.9642     | 3.9642     |   0.0 | 24.44
Other   |            | 0.01752    |            |       |  0.11

Nlocal:    1441 ave 1441 max 1441 min
Histogram: 1 0 0 0 0 0 0 0 0 0
Nghost:    6961 ave 6961 max 6961 min
Histogram: 1 0 0 0 0 0 0 0 0 0
Neighs:    396323 ave 396323 max 396323 min
Histogram: 1 0 0 0 0 0 0 0 0 0

Total # of neighbors = 396323
Ave neighs/atom = 275.033
Ave special neighs/atom = 0
Neighbor list builds = 14
Dangerous builds = 0
System init for write_data ...
Total wall time: 0:00:16
