LAMMPS (7 Aug 2019)
  using 1 OpenMP thread(s) per MPI task
Switching to CHARMM coulomb energy conversion constant (../pair_lj_charmmfsw_coul_charmmfsh.cpp:54)
Reading data file ...
  orthogonal box = (0.956923 0.55248 1.18849) to (29.6646 30.3864 29.3162)
  1 by 2 by 1 MPI processor grid
  reading atoms ...
  1440 atoms
  reading velocities ...
  1440 velocities
Finding 1-2 1-3 1-4 neighbors ...
  special bond factors lj:   0          0          0         
  special bond factors coul: 0          0          0         
  0 = max # of 1-2 neighbors
  0 = max # of 1-3 neighbors
  0 = max # of 1-4 neighbors
  1 = max # of special neighbors
  special bonds CPU = 0.000281596 secs
  read_data CPU = 0.00526916 secs
Lower electrode xlo xhi ylo yhi zlo zhi:
  0.95692267392453156383 29.664602891660422301
  0.5524796001652361177 30.386378009088105046
  2.5557204835069811111 28.34510001425004333
Reading data file ...
  orthogonal box = (0.956923 0.55248 2.55572) to (29.6646 30.3864 87.6613)
  1 by 1 by 2 MPI processor grid
  reading atoms ...
  1440 atoms
  reading velocities ...
  1440 velocities
Finding 1-2 1-3 1-4 neighbors ...
  special bond factors lj:   0          0          0         
  special bond factors coul: 0          0          0         
  0 = max # of 1-2 neighbors
  0 = max # of 1-3 neighbors
  0 = max # of 1-4 neighbors
  1 = max # of special neighbors
  special bonds CPU = 0.000405042 secs
  read_data CPU = 0.00893488 secs
Full system xlo xhi ylo yhi zlo zhi:
  0.95692267392453156383 29.664602891660422301
  0.5524796001652361177 30.386378009088105046
  2.5500226962443002243 86.695897815762720029
0 atoms in group ion
2880 atoms in group bsct_atoms
Neighbor list info ...
  update every 1 steps, delay 0 steps, check yes
  max neighbors/atom: 2000, page size: 100000
  master list distance cutoff = 14
  ghost atom cutoff = 14
  binsize = 7, bins = 5 5 13
  1 neighbor lists, perpetual/occasional/extra = 1 0 0
  (1) pair lj/charmmfsw/coul/charmmfsh/bsct, perpetual
      attributes: half, newton on
      pair build: half/bin/newton
      stencil: half/bin/3d/newton
      bin: standard
Setting up cg style minimization ...
  Unit style    : real
  Current step  : 0
Per MPI rank memory allocation (min/avg/max) = 8.965 | 8.965 | 8.965 Mbytes
Step Temp Press TotEng KinEng PotEng E_bond E_angle E_dihed E_impro E_pair E_vdwl E_coul E_long E_tail 
       0               0 3921.3053488418 -118981.72312103               0 -118981.72312103               0               0               0               0 -118981.72312103 -118981.72312103               0               0               0 
       1               0 3041.3518031332 -118994.31817066               0 -118994.31817066               0               0               0               0 -118994.31817066 -118994.31817066               0               0               0 
       2               0 2744.6774552127 -118995.77601343               0 -118995.77601343               0               0               0               0 -118995.77601343 -118995.77601343               0               0               0 
       3               0 2820.4948988954 -118999.69092586               0 -118999.69092586               0               0               0               0 -118999.69092586 -118999.69092586               0               0               0 
       4               0 2756.0034224032 -119000.10966265               0 -119000.10966265               0               0               0               0 -119000.10966265 -119000.10966265               0               0               0 
       5               0 2683.0069395906 -119000.24792152               0 -119000.24792152               0               0               0               0 -119000.24792152 -119000.24792152               0               0               0 
       6               0 2644.2854729404 -119000.55095447               0 -119000.55095447               0               0               0               0 -119000.55095447 -119000.55095447               0               0               0 
       7               0 2555.5751763103 -119000.63211126               0 -119000.63211126               0               0               0               0 -119000.63211126 -119000.63211126               0               0               0 
       8               0 2446.6816754312 -119000.68744344               0 -119000.68744344               0               0               0               0 -119000.68744344 -119000.68744344               0               0               0 
       9               0 2320.2632222984 -119000.82393981               0 -119000.82393981               0               0               0               0 -119000.82393981 -119000.82393981               0               0               0 
      10               0 2145.5150151011 -119000.96450318               0 -119000.96450318               0               0               0               0 -119000.96450318 -119000.96450318               0               0               0 
      11               0 2053.4964659478 -119001.01561689               0 -119001.01561689               0               0               0               0 -119001.01561689 -119001.01561689               0               0               0 
      12               0 1999.1573765512 -119001.06124341               0 -119001.06124341               0               0               0               0 -119001.06124341 -119001.06124341               0               0               0 
      13               0 1998.2600908672 -119001.06400649               0 -119001.06400649               0               0               0               0 -119001.06400649 -119001.06400649               0               0               0 
      14               0 2005.3918239138 -119001.06715894               0 -119001.06715894               0               0               0               0 -119001.06715894 -119001.06715894               0               0               0 
      15               0 2006.2959201344 -119001.06723966               0 -119001.06723966               0               0               0               0 -119001.06723966 -119001.06723966               0               0               0 
      16               0 2007.4173169985 -119001.06725245               0 -119001.06725245               0               0               0               0 -119001.06725245 -119001.06725245               0               0               0 
      17               0 2007.4173169985 -119001.06725245               0 -119001.06725245               0               0               0               0 -119001.06725245 -119001.06725245               0               0               0 
Loop time of 0.958492 on 2 procs for 17 steps with 2880 atoms

98.6% CPU use with 2 MPI tasks x 1 OpenMP threads

Minimization stats:
  Stopping criterion = linesearch alpha is zero
  Energy initial, next-to-last, final = 
        -118981.723121     -119001.067252     -119001.067252
  Force two-norm initial, final = 97.4018 0.0854261
  Force max component initial, final = 3.31181 0.0034109
  Final line search alpha, max atom move = 9.53674e-07 3.25289e-09
  Iterations, force evaluations = 17 73

MPI task timing breakdown:
Section |  min time  |  avg time  |  max time  |%varavg| %total
---------------------------------------------------------------
Pair    | 0.93139    | 0.93384    | 0.93629    |   0.3 | 97.43
Bond    | 5.1203e-05 | 5.8344e-05 | 6.5485e-05 |   0.0 |  0.01
Neigh   | 0          | 0          | 0          |   0.0 |  0.00
Comm    | 0.0018142  | 0.0018158  | 0.0018175  |   0.0 |  0.19
Output  | 0.00052019 | 0.00059576 | 0.00067132 |   0.0 |  0.06
Modify  | 0          | 0          | 0          |   0.0 |  0.00
Other   |            | 0.02218    |            |       |  2.31

Nlocal:    1440 ave 1440 max 1440 min
Histogram: 2 0 0 0 0 0 0 0 0 0
Nghost:    4160 ave 4160 max 4160 min
Histogram: 2 0 0 0 0 0 0 0 0 0
Neighs:    396000 ave 396000 max 396000 min
Histogram: 2 0 0 0 0 0 0 0 0 0

Total # of neighbors = 792000
Ave neighs/atom = 275
Ave special neighs/atom = 0
Neighbor list builds = 0
Dangerous builds = 0
Insert ion at (x,y,z) = ( 14.353840108867899517, 14.916949204461399603, 43.345100014250000697 )
Created 1 atoms
  create_atoms CPU = 5.30899e-05 secs
System init for write_data ...
Total wall time: 0:00:01
