LAMMPS (7 Aug 2019)
  using 1 OpenMP thread(s) per MPI task
Switching to CHARMM coulomb energy conversion constant (../pair_lj_charmmfsw_coul_charmmfsh.cpp:54)
Reading data file ...
  orthogonal box = (0.960487 0.554537 1.17635) to (29.7751 30.4995 29.0167)
  1 by 1 by 1 MPI processor grid
  reading atoms ...
  1440 atoms
  reading velocities ...
  1440 velocities
Finding 1-2 1-3 1-4 neighbors ...
  special bond factors lj:   0          0          0         
  special bond factors coul: 0          0          0         
  0 = max # of 1-2 neighbors
  0 = max # of 1-3 neighbors
  0 = max # of 1-4 neighbors
  1 = max # of special neighbors
  special bonds CPU = 0.000351998 secs
  read_data CPU = 0.00551325 secs
Neighbor list info ...
  update every 1 steps, delay 0 steps, check yes
  max neighbors/atom: 2000, page size: 100000
  master list distance cutoff = 14
  ghost atom cutoff = 14
  binsize = 7, bins = 5 5 4
  1 neighbor lists, perpetual/occasional/extra = 1 0 0
  (1) pair lj/charmmfsw/coul/charmmfsh/bsct, perpetual
      attributes: half, newton on
      pair build: half/bin/newton
      stencil: half/bin/3d/newton
      bin: standard
Setting up cg style minimization ...
  Unit style    : real
  Current step  : 0
WARNING: Energy due to 3 extra global DOFs will be included in minimizer energies
Per MPI rank memory allocation (min/avg/max) = 8.963 | 8.963 | 8.963 Mbytes
Step Temp Press TotEng KinEng PotEng E_bond E_angle E_dihed E_impro E_pair E_vdwl E_coul E_long E_tail 
       0               0 40926.963084785 -60552.707304333               0 -60552.707304333               0               0               0               0 -60552.707304333 -60552.707304333               0               0               0 
       1               0  40664.50973375 -60555.974208121               0 -60555.974208121               0               0               0               0 -60555.974208121 -60555.974208121               0               0               0 
       2               0 40402.762112056 -60559.22239588               0 -60559.22239588               0               0               0               0 -60559.22239588 -60559.22239588               0               0               0 
       3               0 40141.720443094 -60562.45192501               0 -60562.45192501               0               0               0               0 -60562.45192501 -60562.45192501               0               0               0 
       4               0 39881.384959677 -60565.662852874               0 -60565.662852874               0               0               0               0 -60565.662852874 -60565.662852874               0               0               0 
       5               0 39621.755904151 -60568.855236761               0 -60568.855236761               0               0               0               0 -60568.855236761 -60568.855236761               0               0               0 
       6               0 39362.833528443 -60572.029134328               0 -60572.029134328               0               0               0               0 -60572.029134328 -60572.029134328               0               0               0 
       7               0 39104.618094151 -60575.184602929               0 -60575.184602929               0               0               0               0 -60575.184602929 -60575.184602929               0               0               0 
       8               0 38847.109872644 -60578.32169999               0 -60578.32169999               0               0               0               0 -60578.32169999 -60578.32169999               0               0               0 
       9               0 38590.309145132 -60581.440483243               0 -60581.440483243               0               0               0               0 -60581.440483243 -60581.440483243               0               0               0 
      10               0 38334.216202768 -60584.541010039               0 -60584.541010039               0               0               0               0 -60584.541010039 -60584.541010039               0               0               0 
      11               0 38078.831346709 -60587.623338075               0 -60587.623338075               0               0               0               0 -60587.623338075 -60587.623338075               0               0               0 
      12               0 37824.154888242 -60590.687525018               0 -60590.687525018               0               0               0               0 -60590.687525018 -60590.687525018               0               0               0 
      13               0  37570.18714883 -60593.73362837               0 -60593.73362837               0               0               0               0 -60593.73362837 -60593.73362837               0               0               0 
      14               0 37316.928460246 -60596.761705957               0 -60596.761705957               0               0               0               0 -60596.761705957 -60596.761705957               0               0               0 
      15               0  37064.37916463 -60599.771815508               0 -60599.771815508               0               0               0               0 -60599.771815508 -60599.771815508               0               0               0 
      16               0 36812.539614605 -60602.764014637               0 -60602.764014637               0               0               0               0 -60602.764014637 -60602.764014637               0               0               0 
      17               0 36561.410173345 -60605.738361205               0 -60605.738361205               0               0               0               0 -60605.738361205 -60605.738361205               0               0               0 
      18               0 36310.991214701 -60608.694913028               0 -60608.694913028               0               0               0               0 -60608.694913028 -60608.694913028               0               0               0 
      19               0 36061.283123281 -60611.633727941               0 -60611.633727941               0               0               0               0 -60611.633727941 -60611.633727941               0               0               0 
      20               0 35812.286294545 -60614.55486376               0 -60614.55486376               0               0               0               0 -60614.55486376 -60614.55486376               0               0               0 
      21               0 35564.001134902 -60617.458378449               0 -60617.458378449               0               0               0               0 -60617.458378449 -60617.458378449               0               0               0 
      22               0 35316.428061808 -60620.344329891               0 -60620.344329891               0               0               0               0 -60620.344329891 -60620.344329891               0               0               0 
      23               0 35069.567503896 -60623.212776113               0 -60623.212776113               0               0               0               0 -60623.212776113 -60623.212776113               0               0               0 
      24               0 34823.419901034 -60626.063775125               0 -60626.063775125               0               0               0               0 -60626.063775125 -60626.063775125               0               0               0 
      25               0  34577.98570445 -60628.897384809               0 -60628.897384809               0               0               0               0 -60628.897384809 -60628.897384809               0               0               0 
      26               0 34333.265376838 -60631.713663387               0 -60631.713663387               0               0               0               0 -60631.713663387 -60631.713663387               0               0               0 
      27               0 34089.259392465 -60634.512668931               0 -60634.512668931               0               0               0               0 -60634.512668931 -60634.512668931               0               0               0 
      28               0 33845.968237259 -60637.294459566               0 -60637.294459566               0               0               0               0 -60637.294459566 -60637.294459566               0               0               0 
      29               0 33603.392408938 -60640.059093331               0 -60640.059093331               0               0               0               0 -60640.059093331 -60640.059093331               0               0               0 
      30               0 33361.532417109 -60642.806628538               0 -60642.806628538               0               0               0               0 -60642.806628538 -60642.806628538               0               0               0 
      31               0 33120.388783385 -60645.537123419               0 -60645.537123419               0               0               0               0 -60645.537123419 -60645.537123419               0               0               0 
      32               0 32879.962041488 -60648.250636205               0 -60648.250636205               0               0               0               0 -60648.250636205 -60648.250636205               0               0               0 
      33               0 32640.252737363 -60650.947225168               0 -60650.947225168               0               0               0               0 -60650.947225168 -60650.947225168               0               0               0 
      34               0 32401.261429311 -60653.62694868               0 -60653.62694868               0               0               0               0 -60653.62694868 -60653.62694868               0               0               0 
      35               0 32162.988688073 -60656.289864923               0 -60656.289864923               0               0               0               0 -60656.289864923 -60656.289864923               0               0               0 
      36               0 31925.435096968 -60658.936032541               0 -60658.936032541               0               0               0               0 -60658.936032541 -60658.936032541               0               0               0 
      37               0 31688.601252018 -60661.565509876               0 -60661.565509876               0               0               0               0 -60661.565509876 -60661.565509876               0               0               0 
      38               0 31452.487762046 -60664.178355291               0 -60664.178355291               0               0               0               0 -60664.178355291 -60664.178355291               0               0               0 
      39               0 31217.095248811 -60666.774627238               0 -60666.774627238               0               0               0               0 -60666.774627238 -60666.774627238               0               0               0 
      40               0 30982.424347135 -60669.354384467               0 -60669.354384467               0               0               0               0 -60669.354384467 -60669.354384467               0               0               0 
      41               0 30748.475705021 -60671.917685306               0 -60671.917685306               0               0               0               0 -60671.917685306 -60671.917685306               0               0               0 
      42               0 30515.249983763 -60674.464588392               0 -60674.464588392               0               0               0               0 -60674.464588392 -60674.464588392               0               0               0 
      43               0 30282.747858108 -60676.995152425               0 -60676.995152425               0               0               0               0 -60676.995152425 -60676.995152425               0               0               0 
      44               0 30050.970016355 -60679.509435896               0 -60679.509435896               0               0               0               0 -60679.509435896 -60679.509435896               0               0               0 
      45               0 29819.917160503 -60682.007497694               0 -60682.007497694               0               0               0               0 -60682.007497694 -60682.007497694               0               0               0 
      46               0 29589.590006368 -60684.489396377               0 -60684.489396377               0               0               0               0 -60684.489396377 -60684.489396377               0               0               0 
      47               0 29359.989283728 -60686.955190737               0 -60686.955190737               0               0               0               0 -60686.955190737 -60686.955190737               0               0               0 
      48               0 29131.115736452 -60689.404939591               0 -60689.404939591               0               0               0               0 -60689.404939591 -60689.404939591               0               0               0 
      49               0 28902.970122646 -60691.838701618               0 -60691.838701618               0               0               0               0 -60691.838701618 -60691.838701618               0               0               0 
      50               0 28675.553214773 -60694.256535821               0 -60694.256535821               0               0               0               0 -60694.256535821 -60694.256535821               0               0               0 
      51               0 28448.865799807 -60696.658501009               0 -60696.658501009               0               0               0               0 -60696.658501009 -60696.658501009               0               0               0 
      52               0 28222.908679373 -60699.044655972               0 -60699.044655972               0               0               0               0 -60699.044655972 -60699.044655972               0               0               0 
      53               0 27997.682669882 -60701.415059802               0 -60701.415059802               0               0               0               0 -60701.415059802 -60701.415059802               0               0               0 
      54               0 27773.188602689 -60703.769771527               0 -60703.769771527               0               0               0               0 -60703.769771527 -60703.769771527               0               0               0 
      55               0 27549.427324224 -60706.108849937               0 -60706.108849937               0               0               0               0 -60706.108849937 -60706.108849937               0               0               0 
      56               0 27326.399696151 -60708.432354123               0 -60708.432354123               0               0               0               0 -60708.432354123 -60708.432354123               0               0               0 
      57               0 27104.106595516 -60710.740343227               0 -60710.740343227               0               0               0               0 -60710.740343227 -60710.740343227               0               0               0 
      58               0 26882.548914896 -60713.032876297               0 -60713.032876297               0               0               0               0 -60713.032876297 -60713.032876297               0               0               0 
      59               0 26661.727562552 -60715.310012405               0 -60715.310012405               0               0               0               0 -60715.310012405 -60715.310012405               0               0               0 
      60               0 26441.643462586 -60717.571810727               0 -60717.571810727               0               0               0               0 -60717.571810727 -60717.571810727               0               0               0 
      61               0 26222.297555098 -60719.818330477               0 -60719.818330477               0               0               0               0 -60719.818330477 -60719.818330477               0               0               0 
      62               0 26003.690796345 -60722.049630817               0 -60722.049630817               0               0               0               0 -60722.049630817 -60722.049630817               0               0               0 
      63               0   25785.8241589 -60724.265771116               0 -60724.265771116               0               0               0               0 -60724.265771116 -60724.265771116               0               0               0 
      64               0 25568.698631816 -60726.466810344               0 -60726.466810344               0               0               0               0 -60726.466810344 -60726.466810344               0               0               0 
      65               0 25352.315220787 -60728.652808005               0 -60728.652808005               0               0               0               0 -60728.652808005 -60728.652808005               0               0               0 
      66               0 25136.674948325 -60730.82382338               0 -60730.82382338               0               0               0               0 -60730.82382338 -60730.82382338               0               0               0 
      67               0 24921.778853905 -60732.979915801               0 -60732.979915801               0               0               0               0 -60732.979915801 -60732.979915801               0               0               0 
      68               0 24707.627994168 -60735.121144677               0 -60735.121144677               0               0               0               0 -60735.121144677 -60735.121144677               0               0               0 
      69               0 24494.223443063 -60737.247569435               0 -60737.247569435               0               0               0               0 -60737.247569435 -60737.247569435               0               0               0 
      70               0 24281.566292042 -60739.359249338               0 -60739.359249338               0               0               0               0 -60739.359249338 -60739.359249338               0               0               0 
      71               0 24069.657650214 -60741.456244005               0 -60741.456244005               0               0               0               0 -60741.456244005 -60741.456244005               0               0               0 
      72               0 23858.498644553 -60743.53861287               0 -60743.53861287               0               0               0               0 -60743.53861287 -60743.53861287               0               0               0 
      73               0 23648.090420052 -60745.606415362               0 -60745.606415362               0               0               0               0 -60745.606415362 -60745.606415362               0               0               0 
      74               0 23438.434139909 -60747.659711108               0 -60747.659711108               0               0               0               0 -60747.659711108 -60747.659711108               0               0               0 
      75               0 23229.530985728 -60749.698559465               0 -60749.698559465               0               0               0               0 -60749.698559465 -60749.698559465               0               0               0 
      76               0 23021.382157691 -60751.723020239               0 -60751.723020239               0               0               0               0 -60751.723020239 -60751.723020239               0               0               0 
      77               0 22813.988874745 -60753.733152961               0 -60753.733152961               0               0               0               0 -60753.733152961 -60753.733152961               0               0               0 
      78               0 22607.352374794 -60755.729017052               0 -60755.729017052               0               0               0               0 -60755.729017052 -60755.729017052               0               0               0 
      79               0 22401.473914911 -60757.710672346               0 -60757.710672346               0               0               0               0 -60757.710672346 -60757.710672346               0               0               0 
      80               0 22196.354771492 -60759.678178399               0 -60759.678178399               0               0               0               0 -60759.678178399 -60759.678178399               0               0               0 
      81               0 21991.996240491 -60761.631594954               0 -60761.631594954               0               0               0               0 -60761.631594954 -60761.631594954               0               0               0 
      82               0 21788.399637609 -60763.570981705               0 -60763.570981705               0               0               0               0 -60763.570981705 -60763.570981705               0               0               0 
      83               0 21585.566298476 -60765.496398227               0 -60765.496398227               0               0               0               0 -60765.496398227 -60765.496398227               0               0               0 
      84               0 21383.497578876 -60767.407904328               0 -60767.407904328               0               0               0               0 -60767.407904328 -60767.407904328               0               0               0 
      85               0 21182.194854955 -60769.305559842               0 -60769.305559842               0               0               0               0 -60769.305559842 -60769.305559842               0               0               0 
      86               0 20981.659523407 -60771.189424411               0 -60771.189424411               0               0               0               0 -60771.189424411 -60771.189424411               0               0               0 
      87               0 20781.893001698 -60773.059557773               0 -60773.059557773               0               0               0               0 -60773.059557773 -60773.059557773               0               0               0 
      88               0 20582.896728287 -60774.916019698               0 -60774.916019698               0               0               0               0 -60774.916019698 -60774.916019698               0               0               0 
      89               0 20384.672162826 -60776.758870126               0 -60776.758870126               0               0               0               0 -60776.758870126 -60776.758870126               0               0               0 
      90               0 20187.220786371 -60778.588168731               0 -60778.588168731               0               0               0               0 -60778.588168731 -60778.588168731               0               0               0 
      91               0 19990.544101631 -60780.403975381               0 -60780.403975381               0               0               0               0 -60780.403975381 -60780.403975381               0               0               0 
      92               0  19794.64363316 -60782.20634994               0 -60782.20634994               0               0               0               0 -60782.20634994 -60782.20634994               0               0               0 
      93               0  19599.52092759 -60783.995352218               0 -60783.995352218               0               0               0               0 -60783.995352218 -60783.995352218               0               0               0 
      94               0 19405.177553862 -60785.771042015               0 -60785.771042015               0               0               0               0 -60785.771042015 -60785.771042015               0               0               0 
      95               0 19211.615103453 -60787.533479188               0 -60787.533479188               0               0               0               0 -60787.533479188 -60787.533479188               0               0               0 
      96               0 19018.835190599 -60789.282723641               0 -60789.282723641               0               0               0               0 -60789.282723641 -60789.282723641               0               0               0 
      97               0 18826.839452536 -60791.018835202               0 -60791.018835202               0               0               0               0 -60791.018835202 -60791.018835202               0               0               0 
      98               0 18635.629549739 -60792.741873661               0 -60792.741873661               0               0               0               0 -60792.741873661 -60792.741873661               0               0               0 
      99               0 18445.207166143 -60794.451899027               0 -60794.451899027               0               0               0               0 -60794.451899027 -60794.451899027               0               0               0 
     100               0 18255.574009404 -60796.148971001               0 -60796.148971001               0               0               0               0 -60796.148971001 -60796.148971001               0               0               0 
     101               0 18066.731811134 -60797.833149523               0 -60797.833149523               0               0               0               0 -60797.833149523 -60797.833149523               0               0               0 
     102               0 17878.682327127 -60799.50449444               0 -60799.50449444               0               0               0               0 -60799.50449444 -60799.50449444               0               0               0 
     103               0 17691.427345237 -60801.163065207               0 -60801.163065207               0               0               0               0 -60801.163065207 -60801.163065207               0               0               0 
     104               0 17504.968686655 -60802.808920628               0 -60802.808920628               0               0               0               0 -60802.808920628 -60802.808920628               0               0               0 
     105               0 17319.308181828 -60804.442120576               0 -60804.442120576               0               0               0               0 -60804.442120576 -60804.442120576               0               0               0 
     106               0 17134.447685853 -60806.062724887               0 -60806.062724887               0               0               0               0 -60806.062724887 -60806.062724887               0               0               0 
     107               0  16950.38907929 -60807.670793343               0 -60807.670793343               0               0               0               0 -60807.670793343 -60807.670793343               0               0               0 
     108               0   16767.1342684 -60809.266385841               0 -60809.266385841               0               0               0               0 -60809.266385841 -60809.266385841               0               0               0 
     109               0 16584.685185427 -60810.849562028               0 -60810.849562028               0               0               0               0 -60810.849562028 -60810.849562028               0               0               0 
     110               0 16403.043788849 -60812.420381868               0 -60812.420381868               0               0               0               0 -60812.420381868 -60812.420381868               0               0               0 
     111               0 16222.212063659 -60813.978904961               0 -60813.978904961               0               0               0               0 -60813.978904961 -60813.978904961               0               0               0 
     112               0 16042.192021614 -60815.525191137               0 -60815.525191137               0               0               0               0 -60815.525191137 -60815.525191137               0               0               0 
     113               0 15862.985701509 -60817.059300026               0 -60817.059300026               0               0               0               0 -60817.059300026 -60817.059300026               0               0               0 
     114               0 15684.595169469 -60818.581291562               0 -60818.581291562               0               0               0               0 -60818.581291562 -60818.581291562               0               0               0 
     115               0 15507.022519189 -60820.091225195               0 -60820.091225195               0               0               0               0 -60820.091225195 -60820.091225195               0               0               0 
     116               0 15330.269872235 -60821.589160589               0 -60821.589160589               0               0               0               0 -60821.589160589 -60821.589160589               0               0               0 
     117               0 15154.339378327 -60823.075157543               0 -60823.075157543               0               0               0               0 -60823.075157543 -60823.075157543               0               0               0 
     118               0 14979.233215598 -60824.549275475               0 -60824.549275475               0               0               0               0 -60824.549275475 -60824.549275475               0               0               0 
     119               0 14804.953590886 -60826.01157399               0 -60826.01157399               0               0               0               0 -60826.01157399 -60826.01157399               0               0               0 
     120               0 14631.502740036 -60827.462112652               0 -60827.462112652               0               0               0               0 -60827.462112652 -60827.462112652               0               0               0 
     121               0 14458.882928153 -60828.900950932               0 -60828.900950932               0               0               0               0 -60828.900950932 -60828.900950932               0               0               0 
     122               0 14287.096449919 -60830.328148307               0 -60830.328148307               0               0               0               0 -60830.328148307 -60830.328148307               0               0               0 
     123               0 14116.145629868 -60831.743764068               0 -60831.743764068               0               0               0               0 -60831.743764068 -60831.743764068               0               0               0 
     124               0 13946.032822681 -60833.147857729               0 -60833.147857729               0               0               0               0 -60833.147857729 -60833.147857729               0               0               0 
     125               0 13776.760413484 -60834.540488478               0 -60834.540488478               0               0               0               0 -60834.540488478 -60834.540488478               0               0               0 
     126               0 13608.330818134 -60835.921715655               0 -60835.921715655               0               0               0               0 -60835.921715655 -60835.921715655               0               0               0 
     127               0 13440.746483534 -60837.291598562               0 -60837.291598562               0               0               0               0 -60837.291598562 -60837.291598562               0               0               0 
     128               0 13274.009887897 -60838.650196155               0 -60838.650196155               0               0               0               0 -60838.650196155 -60838.650196155               0               0               0 
     129               0 13108.123541083 -60839.997567713               0 -60839.997567713               0               0               0               0 -60839.997567713 -60839.997567713               0               0               0 
     130               0 12943.089984887 -60841.333772154               0 -60841.333772154               0               0               0               0 -60841.333772154 -60841.333772154               0               0               0 
     131               0 12778.911793315 -60842.658868587               0 -60842.658868587               0               0               0               0 -60842.658868587 -60842.658868587               0               0               0 
     132               0 12615.591572926 -60843.972915798               0 -60843.972915798               0               0               0               0 -60843.972915798 -60843.972915798               0               0               0 
     133               0 12453.131963112 -60845.275972784               0 -60845.275972784               0               0               0               0 -60845.275972784 -60845.275972784               0               0               0 
     134               0 12291.535636415 -60846.568098157               0 -60846.568098157               0               0               0               0 -60846.568098157 -60846.568098157               0               0               0 
     135               0  12130.80529881 -60847.849350783               0 -60847.849350783               0               0               0               0 -60847.849350783 -60847.849350783               0               0               0 
     136               0 11970.943690043 -60849.11978922               0 -60849.11978922               0               0               0               0 -60849.11978922 -60849.11978922               0               0               0 
     137               0   11811.9535839 -60850.379472035               0 -60850.379472035               0               0               0               0 -60850.379472035 -60850.379472035               0               0               0 
     138               0 11653.837791046 -60851.628457557               0 -60851.628457557               0               0               0               0 -60851.628457557 -60851.628457557               0               0               0 
     139               0  11496.59916564 -60852.866803434               0 -60852.866803434               0               0               0               0 -60852.866803434 -60852.866803434               0               0               0 
     140               0 11340.240586878 -60854.094567937               0 -60854.094567937               0               0               0               0 -60854.094567937 -60854.094567937               0               0               0 
     141               0  11184.76496781 -60855.311809345               0 -60855.311809345               0               0               0               0 -60855.311809345 -60855.311809345               0               0               0 
     142               0 11030.175257074 -60856.518585684               0 -60856.518585684               0               0               0               0 -60856.518585684 -60856.518585684               0               0               0 
     143               0 10876.474439183 -60857.714954832               0 -60857.714954832               0               0               0               0 -60857.714954832 -60857.714954832               0               0               0 
     144               0 10723.665534858 -60858.900974946               0 -60858.900974946               0               0               0               0 -60858.900974946 -60858.900974946               0               0               0 
     145               0 10571.751601285 -60860.076703665               0 -60860.076703665               0               0               0               0 -60860.076703665 -60860.076703665               0               0               0 
     146               0 10420.735732468 -60861.242198759               0 -60861.242198759               0               0               0               0 -60861.242198759 -60861.242198759               0               0               0 
     147               0 10270.621059477 -60862.397517753               0 -60862.397517753               0               0               0               0 -60862.397517753 -60862.397517753               0               0               0 
     148               0  10121.41075078 -60863.542718093               0 -60863.542718093               0               0               0               0 -60863.542718093 -60863.542718093               0               0               0 
     149               0 9973.1080128019 -60864.677857223               0 -60864.677857223               0               0               0               0 -60864.677857223 -60864.677857223               0               0               0 
     150               0 9825.7161036283 -60865.802991389               0 -60865.802991389               0               0               0               0 -60865.802991389 -60865.802991389               0               0               0 
     151               0 9679.2383135648 -60866.918177378               0 -60866.918177378               0               0               0               0 -60866.918177378 -60866.918177378               0               0               0 
     152               0 9533.6779632736 -60868.023472068               0 -60868.023472068               0               0               0               0 -60868.023472068 -60868.023472068               0               0               0 
     153               0 9389.0384122125 -60869.118932213               0 -60869.118932213               0               0               0               0 -60869.118932213 -60869.118932213               0               0               0 
     154               0 9245.3230589337 -60870.204614667               0 -60870.204614667               0               0               0               0 -60870.204614667 -60870.204614667               0               0               0 
     155               0 9102.5353413539 -60871.280575879               0 -60871.280575879               0               0               0               0 -60871.280575879 -60871.280575879               0               0               0 
     156               0 8960.6787369944 -60872.346872289               0 -60872.346872289               0               0               0               0 -60872.346872289 -60872.346872289               0               0               0 
     157               0 8819.7567632653 -60873.403560241               0 -60873.403560241               0               0               0               0 -60873.403560241 -60873.403560241               0               0               0 
     158               0 8679.7729777086 -60874.450695707               0 -60874.450695707               0               0               0               0 -60874.450695707 -60874.450695707               0               0               0 
     159               0 8540.7309782512 -60875.488334684               0 -60875.488334684               0               0               0               0 -60875.488334684 -60875.488334684               0               0               0 
     160               0 8402.6344034236 -60876.516533054               0 -60876.516533054               0               0               0               0 -60876.516533054 -60876.516533054               0               0               0 
     161               0 8265.4869326051 -60877.535346384               0 -60877.535346384               0               0               0               0 -60877.535346384 -60877.535346384               0               0               0 
     162               0 8129.2922862565 -60878.544830196               0 -60878.544830196               0               0               0               0 -60878.544830196 -60878.544830196               0               0               0 
     163               0 7994.0542261004 -60879.545039691               0 -60879.545039691               0               0               0               0 -60879.545039691 -60879.545039691               0               0               0 
     164               0 7859.7765553562 -60880.536030108               0 -60880.536030108               0               0               0               0 -60880.536030108 -60880.536030108               0               0               0 
     165               0 7726.4631189013 -60881.517856257               0 -60881.517856257               0               0               0               0 -60881.517856257 -60881.517856257               0               0               0 
     166               0 7594.1178034697 -60882.490573071               0 -60882.490573071               0               0               0               0 -60882.490573071 -60882.490573071               0               0               0 
     167               0 7462.7445378146 -60883.454234966               0 -60883.454234966               0               0               0               0 -60883.454234966 -60883.454234966               0               0               0 
     168               0 7332.3472928593 -60884.408896366               0 -60884.408896366               0               0               0               0 -60884.408896366 -60884.408896366               0               0               0 
     169               0  7202.930081827 -60885.354611541               0 -60885.354611541               0               0               0               0 -60885.354611541 -60885.354611541               0               0               0 
     170               0 7074.4969603752 -60886.291434608               0 -60886.291434608               0               0               0               0 -60886.291434608 -60886.291434608               0               0               0 
     171               0 6947.0520267046 -60887.219419184               0 -60887.219419184               0               0               0               0 -60887.219419184 -60887.219419184               0               0               0 
     172               0 6820.5994216313 -60888.138619043               0 -60888.138619043               0               0               0               0 -60888.138619043 -60888.138619043               0               0               0 
     173               0 6695.1433286526 -60889.049087535               0 -60889.049087535               0               0               0               0 -60889.049087535 -60889.049087535               0               0               0 
     174               0 6570.6879740343 -60889.950877882               0 -60889.950877882               0               0               0               0 -60889.950877882 -60889.950877882               0               0               0 
     175               0 6447.2376267876 -60890.84404315               0 -60890.84404315               0               0               0               0 -60890.84404315 -60890.84404315               0               0               0 
     176               0 6324.7965987068 -60891.728636178               0 -60891.728636178               0               0               0               0 -60891.728636178 -60891.728636178               0               0               0 
     177               0 6203.3692443403 -60892.604709611               0 -60892.604709611               0               0               0               0 -60892.604709611 -60892.604709611               0               0               0 
     178               0 6082.9599609186 -60893.472315685               0 -60893.472315685               0               0               0               0 -60893.472315685 -60893.472315685               0               0               0 
     179               0 5963.5731883362 -60894.331506773               0 -60894.331506773               0               0               0               0 -60894.331506773 -60894.331506773               0               0               0 
     180               0 5845.2134089869 -60895.182334814               0 -60895.182334814               0               0               0               0 -60895.182334814 -60895.182334814               0               0               0 
     181               0 5727.8851476626 -60896.024851625               0 -60896.024851625               0               0               0               0 -60896.024851625 -60896.024851625               0               0               0 
     182               0  5611.592971377 -60896.859108849               0 -60896.859108849               0               0               0               0 -60896.859108849 -60896.859108849               0               0               0 
     183               0 5496.3414891454 -60897.685157748               0 -60897.685157748               0               0               0               0 -60897.685157748 -60897.685157748               0               0               0 
     184               0 5382.1353517739 -60898.503049616               0 -60898.503049616               0               0               0               0 -60898.503049616 -60898.503049616               0               0               0 
     185               0 5268.9792515313 -60899.312835473               0 -60899.312835473               0               0               0               0 -60899.312835473 -60899.312835473               0               0               0 
     186               0  5156.877921862 -60900.114566062               0 -60900.114566062               0               0               0               0 -60900.114566062 -60900.114566062               0               0               0 
     187               0 5045.8361369956 -60900.908292067               0 -60900.908292067               0               0               0               0 -60900.908292067 -60900.908292067               0               0               0 
     188               0 4935.8587115186 -60901.694063913               0 -60901.694063913               0               0               0               0 -60901.694063913 -60901.694063913               0               0               0 
     189               0 4826.9504999198 -60902.471931718               0 -60902.471931718               0               0               0               0 -60902.471931718 -60902.471931718               0               0               0 
     190               0 4719.1163960529 -60903.241945786               0 -60903.241945786               0               0               0               0 -60903.241945786 -60903.241945786               0               0               0 
     191               0 4612.3613325561 -60904.004155979               0 -60904.004155979               0               0               0               0 -60904.004155979 -60904.004155979               0               0               0 
     192               0 4506.6902801924 -60904.758612155               0 -60904.758612155               0               0               0               0 -60904.758612155 -60904.758612155               0               0               0 
     193               0 4402.1082471573 -60905.505363942               0 -60905.505363942               0               0               0               0 -60905.505363942 -60905.505363942               0               0               0 
     194               0 4298.6202782838 -60906.244460773               0 -60906.244460773               0               0               0               0 -60906.244460773 -60906.244460773               0               0               0 
     195               0 4196.2314541829 -60906.975952245               0 -60906.975952245               0               0               0               0 -60906.975952245 -60906.975952245               0               0               0 
     196               0 4094.9468903209 -60907.699887605               0 -60907.699887605               0               0               0               0 -60907.699887605 -60907.699887605               0               0               0 
     197               0 3994.7717359976 -60908.416316204               0 -60908.416316204               0               0               0               0 -60908.416316204 -60908.416316204               0               0               0 
     198               0  3895.711173236 -60909.125287277               0 -60909.125287277               0               0               0               0 -60909.125287277 -60909.125287277               0               0               0 
     199               0 3797.7704155739 -60909.826849893               0 -60909.826849893               0               0               0               0 -60909.826849893 -60909.826849893               0               0               0 
     200               0 3700.9547067957 -60910.521053432               0 -60910.521053432               0               0               0               0 -60910.521053432 -60910.521053432               0               0               0 
     201               0 3605.2693194775 -60911.207947076               0 -60911.207947076               0               0               0               0 -60911.207947076 -60911.207947076               0               0               0 
     202               0 3510.7195534963 -60911.887580119               0 -60911.887580119               0               0               0               0 -60911.887580119 -60911.887580119               0               0               0 
     203               0 3417.3107343872 -60912.560001916               0 -60912.560001916               0               0               0               0 -60912.560001916 -60912.560001916               0               0               0 
     204               0 3325.0482115657 -60913.225262282               0 -60913.225262282               0               0               0               0 -60913.225262282 -60913.225262282               0               0               0 
     205               0 3233.9373564299 -60913.883410659               0 -60913.883410659               0               0               0               0 -60913.883410659 -60913.883410659               0               0               0 
     206               0 3143.9835602914 -60914.534497122               0 -60914.534497122               0               0               0               0 -60914.534497122 -60914.534497122               0               0               0 
     207               0 3055.1922322025 -60915.178572059               0 -60915.178572059               0               0               0               0 -60915.178572059 -60915.178572059               0               0               0 
     208               0 2967.5687965538 -60915.815685944               0 -60915.815685944               0               0               0               0 -60915.815685944 -60915.815685944               0               0               0 
     209               0 2881.1186905455 -60916.445889861               0 -60916.445889861               0               0               0               0 -60916.445889861 -60916.445889861               0               0               0 
     210               0 2795.8473614496 -60917.069235525               0 -60917.069235525               0               0               0               0 -60917.069235525 -60917.069235525               0               0               0 
     211               0 2711.7602636839 -60917.685774718               0 -60917.685774718               0               0               0               0 -60917.685774718 -60917.685774718               0               0               0 
     212               0 2628.8628556524 -60918.295560517               0 -60918.295560517               0               0               0               0 -60918.295560517 -60918.295560517               0               0               0 
     213               0 2547.1605963978 -60918.898646318               0 -60918.898646318               0               0               0               0 -60918.898646318 -60918.898646318               0               0               0 
     214               0 2466.6589419589 -60919.495086602               0 -60919.495086602               0               0               0               0 -60919.495086602 -60919.495086602               0               0               0 
     215               0 2387.3633415061 -60920.084936797               0 -60920.084936797               0               0               0               0 -60920.084936797 -60920.084936797               0               0               0 
     216               0 2309.2792331974 -60920.668253314               0 -60920.668253314               0               0               0               0 -60920.668253314 -60920.668253314               0               0               0 
     217               0 2232.4120397105 -60921.245094201               0 -60921.245094201               0               0               0               0 -60921.245094201 -60921.245094201               0               0               0 
     218               0 2156.7671634923 -60921.815518415               0 -60921.815518415               0               0               0               0 -60921.815518415 -60921.815518415               0               0               0 
     219               0 2082.3499816315 -60922.379587062               0 -60922.379587062               0               0               0               0 -60922.379587062 -60922.379587062               0               0               0 
     220               0  2009.165840388 -60922.937362724               0 -60922.937362724               0               0               0               0 -60922.937362724 -60922.937362724               0               0               0 
     221               0   1937.22004932 -60923.488910253               0 -60923.488910253               0               0               0               0 -60923.488910253 -60923.488910253               0               0               0 
     222               0 1866.5178749988 -60924.034296619               0 -60924.034296619               0               0               0               0 -60924.034296619 -60924.034296619               0               0               0 
     223               0 1797.0645342427 -60924.573591404               0 -60924.573591404               0               0               0               0 -60924.573591404 -60924.573591404               0               0               0 
     224               0 1728.8651868772 -60925.106867085               0 -60925.106867085               0               0               0               0 -60925.106867085 -60925.106867085               0               0               0 
     225               0 1661.9249279761 -60925.634199257               0 -60925.634199257               0               0               0               0 -60925.634199257 -60925.634199257               0               0               0 
     226               0 1596.2487795009 -60926.155667535               0 -60926.155667535               0               0               0               0 -60926.155667535 -60926.155667535               0               0               0 
     227               0 1531.8416813637 -60926.671354738               0 -60926.671354738               0               0               0               0 -60926.671354738 -60926.671354738               0               0               0 
     228               0 1468.7084817488 -60927.181348924               0 -60927.181348924               0               0               0               0 -60927.181348924 -60927.181348924               0               0               0 
     229               0 1406.8539268065 -60927.685742878               0 -60927.685742878               0               0               0               0 -60927.685742878 -60927.685742878               0               0               0 
     230               0 1346.2826494683 -60928.184634919               0 -60928.184634919               0               0               0               0 -60928.184634919 -60928.184634919               0               0               0 
     231               0 1286.9991574332 -60928.678129705               0 -60928.678129705               0               0               0               0 -60928.678129705 -60928.678129705               0               0               0 
     232               0 1229.0078202628 -60929.166339198               0 -60929.166339198               0               0               0               0 -60929.166339198 -60929.166339198               0               0               0 
     233               0 1172.3128553402 -60929.649382757               0 -60929.649382757               0               0               0               0 -60929.649382757 -60929.649382757               0               0               0 
     234               0 1116.9183128351 -60930.127389086               0 -60930.127389086               0               0               0               0 -60930.127389086 -60930.127389086               0               0               0 
     235               0 1062.8280593504 -60930.600496673               0 -60930.600496673               0               0               0               0 -60930.600496673 -60930.600496673               0               0               0 
     236               0 1010.0457602499 -60931.068855155               0 -60931.068855155               0               0               0               0 -60931.068855155 -60931.068855155               0               0               0 
     237               0 958.57486046709 -60931.532627015               0 -60931.532627015               0               0               0               0 -60931.532627015 -60931.532627015               0               0               0 
     238               0 908.41856367724 -60931.991988975               0 -60931.991988975               0               0               0               0 -60931.991988975 -60931.991988975               0               0               0 
     239               0 859.57980965831 -60932.447133897               0 -60932.447133897               0               0               0               0 -60932.447133897 -60932.447133897               0               0               0 
     240               0 812.06124952565 -60932.898273103               0 -60932.898273103               0               0               0               0 -60932.898273103 -60932.898273103               0               0               0 
     241               0 765.86521878542 -60933.345638916               0 -60933.345638916               0               0               0               0 -60933.345638916 -60933.345638916               0               0               0 
     242               0 720.99370775372 -60933.789487352               0 -60933.789487352               0               0               0               0 -60933.789487352 -60933.789487352               0               0               0 
     243               0 677.44832909141 -60934.230101885               0 -60934.230101885               0               0               0               0 -60934.230101885 -60934.230101885               0               0               0 
     244               0 635.23028211194 -60934.667797244               0 -60934.667797244               0               0               0               0 -60934.667797244 -60934.667797244               0               0               0 
     245               0 594.34031333054 -60935.102924633               0 -60935.102924633               0               0               0               0 -60935.102924633 -60935.102924633               0               0               0 
     246               0 554.77867277173 -60935.535876704               0 -60935.535876704               0               0               0               0 -60935.535876704 -60935.535876704               0               0               0 
     247               0 516.54506539518 -60935.967094948               0 -60935.967094948               0               0               0               0 -60935.967094948 -60935.967094948               0               0               0 
     248               0 479.63859683231 -60936.397077635               0 -60936.397077635               0               0               0               0 -60936.397077635 -60936.397077635               0               0               0 
     249               0 444.05771254229 -60936.826389617               0 -60936.826389617               0               0               0               0 -60936.826389617 -60936.826389617               0               0               0 
     250               0 409.80012919402 -60937.255674505               0 -60937.255674505               0               0               0               0 -60937.255674505 -60937.255674505               0               0               0 
     251               0 376.86275682684 -60937.685669497               0 -60937.685669497               0               0               0               0 -60937.685669497 -60937.685669497               0               0               0 
     252               0 345.24161004397 -60938.117223926               0 -60938.117223926               0               0               0               0 -60938.117223926 -60938.117223926               0               0               0 
     253               0  314.9317058398 -60938.551321678               0 -60938.551321678               0               0               0               0 -60938.551321678 -60938.551321678               0               0               0 
     254               0 285.92694519095 -60938.989111592               0 -60938.989111592               0               0               0               0 -60938.989111592 -60938.989111592               0               0               0 
     255               0 258.21997442864 -60939.431943763               0 -60939.431943763               0               0               0               0 -60939.431943763 -60939.431943763               0               0               0 
     256               0 231.80202125584 -60939.881419387               0 -60939.881419387               0               0               0               0 -60939.881419387 -60939.881419387               0               0               0 
     257               0 206.66269828837 -60940.339454322               0 -60940.339454322               0               0               0               0 -60940.339454322 -60940.339454322               0               0               0 
     258               0 182.78976437261 -60940.808365982               0 -60940.808365982               0               0               0               0 -60940.808365982 -60940.808365982               0               0               0 
     259               0 160.16882961793 -60941.290991204               0 -60941.290991204               0               0               0               0 -60941.290991204 -60941.290991204               0               0               0 
     260               0 138.78298378391 -60941.790850851               0 -60941.790850851               0               0               0               0 -60941.790850851 -60941.790850851               0               0               0 
     261               0 118.61231702422 -60942.312386582               0 -60942.312386582               0               0               0               0 -60942.312386582 -60942.312386582               0               0               0 
     262               0 99.633284611269 -60942.861307718               0 -60942.861307718               0               0               0               0 -60942.861307718 -60942.861307718               0               0               0 
     263               0 81.817836211071 -60943.445122193               0 -60943.445122193               0               0               0               0 -60943.445122193 -60943.445122193               0               0               0 
     264               0  65.13217288625 -60944.073976424               0 -60944.073976424               0               0               0               0 -60944.073976424 -60944.073976424               0               0               0 
     265               0 49.534880651754 -60944.762058235               0 -60944.762058235               0               0               0               0 -60944.762058235 -60944.762058235               0               0               0 
     266               0 34.973943176799 -60945.530079422               0 -60945.530079422               0               0               0               0 -60945.530079422 -60945.530079422               0               0               0 
     267               0 21.381547997602 -60946.410039011               0 -60946.410039011               0               0               0               0 -60946.410039011 -60946.410039011               0               0               0 
     268               0 8.6639977535942 -60947.455366296               0 -60947.455366296               0               0               0               0 -60947.455366296 -60947.455366296               0               0               0 
     269               0 -3.321201281575 -60948.765992854               0 -60948.765992854               0               0               0               0 -60948.765992854 -60948.765992854               0               0               0 
     270               0 -14.831428163812 -60950.566351303               0 -60950.566351303               0               0               0               0 -60950.566351303 -60950.566351303               0               0               0 
     271               0 -26.531873357363 -60953.574717977               0 -60953.574717977               0               0               0               0 -60953.574717977 -60953.574717977               0               0               0 
     272               0 -44.008714083924 -60965.255772717               0 -60965.255772717               0               0               0               0 -60965.255772717 -60965.255772717               0               0               0 
     273               0 -37.792362444511 -60968.582242047               0 -60968.582242047               0               0               0               0 -60968.582242047 -60968.582242047               0               0               0 
     274               0 -31.586256267003 -60975.300197261               0 -60975.300197261               0               0               0               0 -60975.300197261 -60975.300197261               0               0               0 
     275               0 -43.197344142869 -60996.052857157               0 -60996.052857157               0               0               0               0 -60996.052857157 -60996.052857157               0               0               0 
     276               0 -24.224981863032 -61001.781482632               0 -61001.781482632               0               0               0               0 -61001.781482632 -61001.781482632               0               0               0 
     277               0 -95.227359340817 -61021.740171378               0 -61021.740171378               0               0               0               0 -61021.740171378 -61021.740171378               0               0               0 
     278               0 40.067137356909 -61026.849680163               0 -61026.849680163               0               0               0               0 -61026.849680163 -61026.849680163               0               0               0 
     279               0 -460.51048654274 -61042.735829811               0 -61042.735829811               0               0               0               0 -61042.735829811 -61042.735829811               0               0               0 
     280               0 -93.082408652241 -61044.761162183               0 -61044.761162183               0               0               0               0 -61044.761162183 -61044.761162183               0               0               0 
     281               0 92.819715005764 -61051.705078956               0 -61051.705078956               0               0               0               0 -61051.705078956 -61051.705078956               0               0               0 
     282               0 -354.14947903297  -61059.8113547               0  -61059.8113547               0               0               0               0  -61059.8113547  -61059.8113547               0               0               0 
     283               0 3.2772844825586 -61062.370661288               0 -61062.370661288               0               0               0               0 -61062.370661288 -61062.370661288               0               0               0 
     284               0 -352.27773822955 -61085.331752763               0 -61085.331752763               0               0               0               0 -61085.331752763 -61085.331752763               0               0               0 
     285               0 16.006711848297 -61087.895882529               0 -61087.895882529               0               0               0               0 -61087.895882529 -61087.895882529               0               0               0 
     286               0 -540.77996718253 -61114.199686054               0 -61114.199686054               0               0               0               0 -61114.199686054 -61114.199686054               0               0               0 
     287               0 -159.72679307661 -61115.895133725               0 -61115.895133725               0               0               0               0 -61115.895133725 -61115.895133725               0               0               0 
     288               0  114.2119010185 -61120.480016235               0 -61120.480016235               0               0               0               0 -61120.480016235 -61120.480016235               0               0               0 
     289               0 -319.20253214542 -61126.967060216               0 -61126.967060216               0               0               0               0 -61126.967060216 -61126.967060216               0               0               0 
     290               0 36.660362275437 -61129.670009608               0 -61129.670009608               0               0               0               0 -61129.670009608 -61129.670009608               0               0               0 
     291               0 -446.98416785732 -61145.28828365               0 -61145.28828365               0               0               0               0 -61145.28828365 -61145.28828365               0               0               0 
     292               0 -66.164714566482  -61147.2868088               0  -61147.2868088               0               0               0               0  -61147.2868088  -61147.2868088               0               0               0 
     293               0 84.537202360811 -61156.005975485               0 -61156.005975485               0               0               0               0 -61156.005975485 -61156.005975485               0               0               0 
     294               0 -357.53213157489 -61164.118917784               0 -61164.118917784               0               0               0               0 -61164.118917784 -61164.118917784               0               0               0 
     295               0 9.5105298264934 -61166.514408534               0 -61166.514408534               0               0               0               0 -61166.514408534 -61166.514408534               0               0               0 
     296               0 -515.49377510935 -61194.868163133               0 -61194.868163133               0               0               0               0 -61194.868163133 -61194.868163133               0               0               0 
     297               0 -127.80267524078 -61196.560995881               0 -61196.560995881               0               0               0               0 -61196.560995881 -61196.560995881               0               0               0 
     298               0 136.26769306609 -61201.971383588               0 -61201.971383588               0               0               0               0 -61201.971383588 -61201.971383588               0               0               0 
     299               0 -291.08911546619 -61207.247613855               0 -61207.247613855               0               0               0               0 -61207.247613855 -61207.247613855               0               0               0 
     300               0 62.514556156307 -61210.027378367               0 -61210.027378367               0               0               0               0 -61210.027378367 -61210.027378367               0               0               0 
     301               0 -392.39123155855 -61220.208760464               0 -61220.208760464               0               0               0               0 -61220.208760464 -61220.208760464               0               0               0 
     302               0 -16.227900430537 -61222.335960817               0 -61222.335960817               0               0               0               0 -61222.335960817 -61222.335960817               0               0               0 
     303               0 -109.83380630135 -61238.144431393               0 -61238.144431393               0               0               0               0 -61238.144431393 -61238.144431393               0               0               0 
     304               0 136.84597528055 -61244.050648556               0 -61244.050648556               0               0               0               0 -61244.050648556 -61244.050648556               0               0               0 
     305               0 -290.28680004822 -61249.15869734               0 -61249.15869734               0               0               0               0 -61249.15869734 -61249.15869734               0               0               0 
     306               0 65.804093458577 -61251.867937129               0 -61251.867937129               0               0               0               0 -61251.867937129 -61251.867937129               0               0               0 
     307               0 -386.24110036498 -61261.417247141               0 -61261.417247141               0               0               0               0 -61261.417247141 -61261.417247141               0               0               0 
     308               0 -8.9400956299431 -61263.513298882               0 -61263.513298882               0               0               0               0 -61263.513298882 -61263.513298882               0               0               0 
     309               0 -177.94188394684 -61281.512859005               0 -61281.512859005               0               0               0               0 -61281.512859005 -61281.512859005               0               0               0 
     310               0 136.13738102876 -61285.461724001               0 -61285.461724001               0               0               0               0 -61285.461724001 -61285.461724001               0               0               0 
     311               0 -291.23206056784 -61290.483320211               0 -61290.483320211               0               0               0               0 -61290.483320211 -61290.483320211               0               0               0 
     312               0 67.785907457193 -61293.108911883               0 -61293.108911883               0               0               0               0 -61293.108911883 -61293.108911883               0               0               0 
     313               0 -382.41122229316 -61302.21032337               0 -61302.21032337               0               0               0               0 -61302.21032337 -61302.21032337               0               0               0 
     314               0 -3.5884512698506 -61304.264183419               0 -61304.264183419               0               0               0               0 -61304.264183419 -61304.264183419               0               0               0 
     315               0 -246.10460388815 -61324.398045907               0 -61324.398045907               0               0               0               0 -61324.398045907 -61324.398045907               0               0               0 
     316               0  103.5537971344 -61327.316120316               0 -61327.316120316               0               0               0               0 -61327.316120316 -61327.316120316               0               0               0 
     317               0 -331.35538804026 -61333.551173293               0 -61333.551173293               0               0               0               0 -61333.551173293 -61333.551173293               0               0               0 
     318               0 39.748027735905 -61335.826281191               0 -61335.826281191               0               0               0               0 -61335.826281191 -61335.826281191               0               0               0 
     319               0 -434.87618534419 -61349.202641201               0 -61349.202641201               0               0               0               0 -61349.202641201 -61349.202641201               0               0               0 
     320               0 -46.118867228971 -61350.97655858               0 -61350.97655858               0               0               0               0 -61350.97655858 -61350.97655858               0               0               0 
     321               0 68.221378697533 -61360.756682466               0 -61360.756682466               0               0               0               0 -61360.756682466 -61360.756682466               0               0               0 
     322               0 -379.38209847878 -61369.282888958               0 -61369.282888958               0               0               0               0 -61369.282888958 -61369.282888958               0               0               0 
     323               0 2.7916080793646 -61371.252193675               0 -61371.252193675               0               0               0               0 -61371.252193675 -61371.252193675               0               0               0 
     324               0 -366.20434311611 -61395.107554898               0 -61395.107554898               0               0               0               0 -61395.107554898 -61395.107554898               0               0               0 
     325               0 15.656898579493 -61397.070993857               0 -61397.070993857               0               0               0               0 -61397.070993857 -61397.070993857               0               0               0 
     326               0 -514.18022827312 -61420.266454318               0 -61420.266454318               0               0               0               0 -61420.266454318 -61420.266454318               0               0               0 
     327               0 -121.66140818555 -61421.693224861               0 -61421.693224861               0               0               0               0 -61421.693224861 -61421.693224861               0               0               0 
     328               0 162.31829985271 -61426.573722176               0 -61426.573722176               0               0               0               0 -61426.573722176 -61426.573722176               0               0               0 
[...]
    3463               0 31.608062116251 -63065.049600273               0 -63065.049600273               0               0               0               0 -63065.049600273 -63065.049600273               0               0               0 
    3464               0 -30.298796092628 -63065.052492217               0 -63065.052492217               0               0               0               0 -63065.052492217 -63065.052492217               0               0               0 
    3465               0 38.795547207621 -63065.053159843               0 -63065.053159843               0               0               0               0 -63065.053159843 -63065.053159843               0               0               0 
    3466               0 12.449818633993 -63065.079503297               0 -63065.079503297               0               0               0               0 -63065.079503297 -63065.079503297               0               0               0 
    3467               0 -37.634741779116 -63065.101876624               0 -63065.101876624               0               0               0               0 -63065.101876624 -63065.101876624               0               0               0 
    3468               0 32.604082729305 -63065.102512064               0 -63065.102512064               0               0               0               0 -63065.102512064 -63065.102512064               0               0               0 
    3469               0 -21.164433455576 -63065.10579959               0 -63065.10579959               0               0               0               0 -63065.10579959 -63065.10579959               0               0               0 
    3470               0 -16.126187896453 -63065.225476697               0 -63065.225476697               0               0               0               0 -63065.225476697 -63065.225476697               0               0               0 
    3471               0 13.246540723551 -63065.248348907               0 -63065.248348907               0               0               0               0 -63065.248348907 -63065.248348907               0               0               0 
    3472               0 -29.253182013875 -63065.24944258               0 -63065.24944258               0               0               0               0 -63065.24944258 -63065.24944258               0               0               0 
    3473               0 70.703611331753 -63065.25097041               0 -63065.25097041               0               0               0               0 -63065.25097041 -63065.25097041               0               0               0 
    3474               0 29.581798311229 -63065.294648073               0 -63065.294648073               0               0               0               0 -63065.294648073 -63065.294648073               0               0               0 
    3475               0 -40.783448333302 -63065.313990072               0 -63065.313990072               0               0               0               0 -63065.313990072 -63065.313990072               0               0               0 
    3476               0 34.267239237242 -63065.314977534               0 -63065.314977534               0               0               0               0 -63065.314977534 -63065.314977534               0               0               0 
    3477               0 -22.059368196471 -63065.316156513               0 -63065.316156513               0               0               0               0 -63065.316156513 -63065.316156513               0               0               0 
    3478               0 -8.6382346222365 -63065.344706655               0 -63065.344706655               0               0               0               0 -63065.344706655 -63065.344706655               0               0               0 
    3479               0 24.148340819194 -63065.36829902               0 -63065.36829902               0               0               0               0 -63065.36829902 -63065.36829902               0               0               0 
    3480               0 -57.914549566077 -63065.369159033               0 -63065.369159033               0               0               0               0 -63065.369159033 -63065.369159033               0               0               0 
    3481               0 -261.54263905385 -63065.384969095               0 -63065.384969095               0               0               0               0 -63065.384969095 -63065.384969095               0               0               0 
    3482               0 81.964901090786 -63065.43373368               0 -63065.43373368               0               0               0               0 -63065.43373368 -63065.43373368               0               0               0 
    3483               0 -24.144380757362 -63065.464309394               0 -63065.464309394               0               0               0               0 -63065.464309394 -63065.464309394               0               0               0 
    3484               0 78.731454944887 -63065.540435073               0 -63065.540435073               0               0               0               0 -63065.540435073 -63065.540435073               0               0               0 
    3485               0 -76.181473801471 -63065.631297141               0 -63065.631297141               0               0               0               0 -63065.631297141 -63065.631297141               0               0               0 
    3486               0 94.961275292868 -63065.648943819               0 -63065.648943819               0               0               0               0 -63065.648943819 -63065.648943819               0               0               0 
    3487               0 148.23034965801 -63065.674447997               0 -63065.674447997               0               0               0               0 -63065.674447997 -63065.674447997               0               0               0 
    3488               0 -12.173528550515 -63065.729091067               0 -63065.729091067               0               0               0               0 -63065.729091067 -63065.729091067               0               0               0 
    3489               0 -83.748442104956 -63065.780842772               0 -63065.780842772               0               0               0               0 -63065.780842772 -63065.780842772               0               0               0 
    3490               0 56.827153056628 -63065.787499965               0 -63065.787499965               0               0               0               0 -63065.787499965 -63065.787499965               0               0               0 
    3491               0 -14.932397184874 -63065.788524362               0 -63065.788524362               0               0               0               0 -63065.788524362 -63065.788524362               0               0               0 
    3492               0 39.908915053919 -63065.792053391               0 -63065.792053391               0               0               0               0 -63065.792053391 -63065.792053391               0               0               0 
    3493               0 -224.35548787587 -63065.840967724               0 -63065.840967724               0               0               0               0 -63065.840967724 -63065.840967724               0               0               0 
    3494               0 32.535946480463 -63065.883140045               0 -63065.883140045               0               0               0               0 -63065.883140045 -63065.883140045               0               0               0 
    3495               0 -41.10965433128 -63065.885696685               0 -63065.885696685               0               0               0               0 -63065.885696685 -63065.885696685               0               0               0 
    3496               0 28.090445173589 -63065.886725027               0 -63065.886725027               0               0               0               0 -63065.886725027 -63065.886725027               0               0               0 
    3497               0 146.70390268581 -63065.900649078               0 -63065.900649078               0               0               0               0 -63065.900649078 -63065.900649078               0               0               0 
    3498               0 -139.47290570478 -63065.932373477               0 -63065.932373477               0               0               0               0 -63065.932373477 -63065.932373477               0               0               0 
    3499               0 -60.391223473208 -63065.956327393               0 -63065.956327393               0               0               0               0 -63065.956327393 -63065.956327393               0               0               0 
    3500               0 34.385185393381 -63065.957967867               0 -63065.957967867               0               0               0               0 -63065.957967867 -63065.957967867               0               0               0 
    3501               0 -13.951852541846 -63065.958787847               0 -63065.958787847               0               0               0               0 -63065.958787847 -63065.958787847               0               0               0 
    3502               0 -0.03066960868492 -63065.97326416               0 -63065.97326416               0               0               0               0 -63065.97326416 -63065.97326416               0               0               0 
    3503               0  15.43579580622 -63066.001352907               0 -63066.001352907               0               0               0               0 -63066.001352907 -63066.001352907               0               0               0 
    3504               0 -125.42060253889 -63066.003830512               0 -63066.003830512               0               0               0               0 -63066.003830512 -63066.003830512               0               0               0 
    3505               0 -309.43742045831 -63066.008186424               0 -63066.008186424               0               0               0               0 -63066.008186424 -63066.008186424               0               0               0 
    3506               0 -263.48419502366 -63066.110287398               0 -63066.110287398               0               0               0               0 -63066.110287398 -63066.110287398               0               0               0 
    3507               0 -4.5113696603727 -63066.125373541               0 -63066.125373541               0               0               0               0 -63066.125373541 -63066.125373541               0               0               0 
    3508               0 9.3559047192065 -63066.128495093               0 -63066.128495093               0               0               0               0 -63066.128495093 -63066.128495093               0               0               0 
    3509               0 -127.10328495733 -63066.130872918               0 -63066.130872918               0               0               0               0 -63066.130872918 -63066.130872918               0               0               0 
    3510               0 -88.837075225799 -63066.21681962               0 -63066.21681962               0               0               0               0 -63066.21681962 -63066.21681962               0               0               0 
    3511               0 33.185970375866 -63066.235054993               0 -63066.235054993               0               0               0               0 -63066.235054993 -63066.235054993               0               0               0 
    3512               0 -28.825210594031 -63066.236819378               0 -63066.236819378               0               0               0               0 -63066.236819378 -63066.236819378               0               0               0 
    3513               0 31.013727349376 -63066.237385108               0 -63066.237385108               0               0               0               0 -63066.237385108 -63066.237385108               0               0               0 
    3514               0 18.047257308477 -63066.281536213               0 -63066.281536213               0               0               0               0 -63066.281536213 -63066.281536213               0               0               0 
    3515               0 -32.980337848948 -63066.30132394               0 -63066.30132394               0               0               0               0 -63066.30132394 -63066.30132394               0               0               0 
    3516               0 29.455961456167 -63066.301799405               0 -63066.301799405               0               0               0               0 -63066.301799405 -63066.301799405               0               0               0 
    3517               0 -10.905692435328 -63066.306216925               0 -63066.306216925               0               0               0               0 -63066.306216925 -63066.306216925               0               0               0 
    3518               0 -132.32952411559  -63066.4000597               0  -63066.4000597               0               0               0               0  -63066.4000597  -63066.4000597               0               0               0 
    3519               0 93.599155550246 -63066.418840319               0 -63066.418840319               0               0               0               0 -63066.418840319 -63066.418840319               0               0               0 
    3520               0 -11.713978205312 -63066.426217604               0 -63066.426217604               0               0               0               0 -63066.426217604 -63066.426217604               0               0               0 
    3521               0 -310.55154166337 -63066.448448243               0 -63066.448448243               0               0               0               0 -63066.448448243 -63066.448448243               0               0               0 
    3522               0 -435.39364551493 -63066.551543363               0 -63066.551543363               0               0               0               0 -63066.551543363 -63066.551543363               0               0               0 
    3523               0 -113.92776213143 -63066.602067443               0 -63066.602067443               0               0               0               0 -63066.602067443 -63066.602067443               0               0               0 
    3524               0 68.869962343121 -63066.609620196               0 -63066.609620196               0               0               0               0 -63066.609620196 -63066.609620196               0               0               0 
    3525               0 -5.9933560481265 -63066.611099596               0 -63066.611099596               0               0               0               0 -63066.611099596 -63066.611099596               0               0               0 
    3526               0 5.4443540895467 -63066.613952189               0 -63066.613952189               0               0               0               0 -63066.613952189 -63066.613952189               0               0               0 
    3527               0 -295.86105266865 -63068.808083485               0 -63068.808083485               0               0               0               0 -63068.808083485 -63068.808083485               0               0               0 
    3528               0  48.24555253029 -63068.836173748               0 -63068.836173748               0               0               0               0 -63068.836173748 -63068.836173748               0               0               0 
    3529               0 66.890511866312 -63068.854367622               0 -63068.854367622               0               0               0               0 -63068.854367622 -63068.854367622               0               0               0 
    3530               0 -56.612691786137 -63068.885327216               0 -63068.885327216               0               0               0               0 -63068.885327216 -63068.885327216               0               0               0 
    3531               0 -199.5443903391 -63069.017880241               0 -63069.017880241               0               0               0               0 -63069.017880241 -63069.017880241               0               0               0 
    3532               0 0.66071487303618 -63069.034699874               0 -63069.034699874               0               0               0               0 -63069.034699874 -63069.034699874               0               0               0 
    3533               0  3.200562863252 -63069.036674278               0 -63069.036674278               0               0               0               0 -63069.036674278 -63069.036674278               0               0               0 
    3534               0 -20.308747105163 -63069.037281136               0 -63069.037281136               0               0               0               0 -63069.037281136 -63069.037281136               0               0               0 
    3535               0 144.97747492048 -63069.040928445               0 -63069.040928445               0               0               0               0 -63069.040928445 -63069.040928445               0               0               0 
    3536               0 -34.018640422837 -63070.895070599               0 -63070.895070599               0               0               0               0 -63070.895070599 -63070.895070599               0               0               0 
    3537               0 8.0514792084825 -63070.895304642               0 -63070.895304642               0               0               0               0 -63070.895304642 -63070.895304642               0               0               0 
    3538               0 0.86052814713618 -63070.895348291               0 -63070.895348291               0               0               0               0 -63070.895348291 -63070.895348291               0               0               0 
    3539               0 0.86052814713618 -63070.895348291               0 -63070.895348291               0               0               0               0 -63070.895348291 -63070.895348291               0               0               0 
Loop time of 45.0867 on 1 procs for 3539 steps with 1440 atoms

99.9% CPU use with 1 MPI tasks x 1 OpenMP threads

Minimization stats:
  Stopping criterion = linesearch alpha is zero
  Energy initial, next-to-last, final = 
        -60552.7073043     -63070.8943541     -63070.8943541
  Force two-norm initial, final = 31040.9 0.244041
  Force max component initial, final = 29418 0.0805837
  Final line search alpha, max atom move = 1.5866e-07 1.27854e-08
  Iterations, force evaluations = 3539 3866

MPI task timing breakdown:
Section |  min time  |  avg time  |  max time  |%varavg| %total
---------------------------------------------------------------
Pair    | 44.069     | 44.069     | 44.069     |   0.0 | 97.74
Bond    | 0.0021064  | 0.0021064  | 0.0021064  |   0.0 |  0.00
Neigh   | 0.010563   | 0.010563   | 0.010563   |   0.0 |  0.02
Comm    | 0.18218    | 0.18218    | 0.18218    |   0.0 |  0.40
Output  | 0.08381    | 0.08381    | 0.08381    |   0.0 |  0.19
Modify  | 0          | 0          | 0          |   0.0 |  0.00
Other   |            | 0.7392     |            |       |  1.64

Nlocal:    1440 ave 1440 max 1440 min
Histogram: 1 0 0 0 0 0 0 0 0 0
Nghost:    9760 ave 9760 max 9760 min
Histogram: 1 0 0 0 0 0 0 0 0 0
Neighs:    480240 ave 480240 max 480240 min
Histogram: 1 0 0 0 0 0 0 0 0 0

Total # of neighbors = 480240
Ave neighs/atom = 333.5
Ave special neighs/atom = 0
Neighbor list builds = 1
Dangerous builds = 0
System init for write_data ...
Total wall time: 0:00:45
