LAMMPS data file. CGCMM Style. atom_style full. Created by charmm2lammps v1.9.1 on Fr 6. Jul 14:53:13 CEST 2018

         145  atoms
           0  bonds
           0  angles
           0  dihedrals
           0  impropers

           2  atom types
           0  bond types
           0  angle types
           0  dihedral types
           0  improper types

  -9.8626932    9.8626932 xlo xhi
  -9.8626932    9.8626932 ylo yhi
  -12.328367    12.328367 zlo zhi

Masses

       1   196.9665  # Au
       2   22.98977  # Na

Atoms # full

       1       1     1         0           -7.929           -9.572           -7.481  # AU
       2       2     1         0           -6.489           -7.072           -7.481  # AU
       3       3     1         0           -7.929           -7.912           -5.131  # AU
       4       4     1         0           -6.489           -5.412           -5.131  # AU
       5       5     1         0           -6.489           -8.742           -2.771  # AU
       6       6     1         0           -7.929           -6.242           -2.771  # AU
       7       7     1         0           -7.929           -4.577           -7.481  # AU
       8       8     1         0           -6.489           -2.077           -7.481  # AU
       9       9     1         0           -7.929           -2.917           -5.131  # AU
      10      10     1         0           -6.489           -0.417           -5.131  # AU
      11      11     1         0           -6.489           -3.747           -2.771  # AU
      12      12     1         0           -7.929           -1.247           -2.771  # AU
      13      13     1         0           -7.929            0.418           -7.481  # AU
      14      14     1         0           -6.489            2.918           -7.481  # AU
      15      15     1         0           -7.929            2.078           -5.131  # AU
      16      16     1         0           -6.489            4.578           -5.131  # AU
      17      17     1         0           -6.489            1.248           -2.771  # AU
      18      18     1         0           -7.929            3.748           -2.771  # AU
      19      19     1         0           -7.929            5.412           -7.481  # AU
      20      20     1         0           -6.489            7.912           -7.481  # AU
      21      21     1         0           -7.929            7.072           -5.131  # AU
      22      22     1         0           -6.489            9.572           -5.131  # AU
      23      23     1         0           -6.489            6.242           -2.771  # AU
      24      24     1         0           -7.929            8.742           -2.771  # AU
      25      25     1         0           -5.045           -9.572           -7.481  # AU
      26      26     1         0           -3.605           -7.072           -7.481  # AU
      27      27     1         0           -5.045           -7.912           -5.131  # AU
      28      28     1         0           -3.605           -5.412           -5.131  # AU
      29      29     1         0           -3.605           -8.742           -2.771  # AU
      30      30     1         0           -5.045           -6.242           -2.771  # AU
      31      31     1         0           -5.045           -4.577           -7.481  # AU
      32      32     1         0           -3.605           -2.077           -7.481  # AU
      33      33     1         0           -5.045           -2.917           -5.131  # AU
      34      34     1         0           -3.605           -0.417           -5.131  # AU
      35      35     1         0           -3.605           -3.747           -2.771  # AU
      36      36     1         0           -5.045           -1.247           -2.771  # AU
      37      37     1         0           -5.045            0.418           -7.481  # AU
      38      38     1         0           -3.605            2.918           -7.481  # AU
      39      39     1         0           -5.045            2.078           -5.131  # AU
      40      40     1         0           -3.605            4.578           -5.131  # AU
      41      41     1         0           -3.605            1.248           -2.771  # AU
      42      42     1         0           -5.045            3.748           -2.771  # AU
      43      43     1         0           -5.045            5.412           -7.481  # AU
      44      44     1         0           -3.605            7.912           -7.481  # AU
      45      45     1         0           -5.045            7.072           -5.131  # AU
      46      46     1         0           -3.605            9.572           -5.131  # AU
      47      47     1         0           -3.605            6.242           -2.771  # AU
      48      48     1         0           -5.045            8.742           -2.771  # AU
      49      49     1         0           -2.162           -9.572           -7.481  # AU
      50      50     1         0           -0.722           -7.072           -7.481  # AU
      51      51     1         0           -2.162           -7.912           -5.131  # AU
      52      52     1         0           -0.722           -5.412           -5.131  # AU
      53      53     1         0           -0.722           -8.742           -2.771  # AU
      54      54     1         0           -2.162           -6.242           -2.771  # AU
      55      55     1         0           -2.162           -4.577           -7.481  # AU
      56      56     1         0           -0.722           -2.077           -7.481  # AU
      57      57     1         0           -2.162           -2.917           -5.131  # AU
      58      58     1         0           -0.722           -0.417           -5.131  # AU
      59      59     1         0           -0.722           -3.747           -2.771  # AU
      60      60     1         0           -2.162           -1.247           -2.771  # AU
      61      61     1         0           -2.162            0.418           -7.481  # AU
      62      62     1         0           -0.722            2.918           -7.481  # AU
      63      63     1         0           -2.162            2.078           -5.131  # AU
      64      64     1         0           -0.722            4.578           -5.131  # AU
      65      65     1         0           -0.722            1.248           -2.771  # AU
      66      66     1         0           -2.162            3.748           -2.771  # AU
      67      67     1         0           -2.162            5.412           -7.481  # AU
      68      68     1         0           -0.722            7.912           -7.481  # AU
      69      69     1         0           -2.162            7.072           -5.131  # AU
      70      70     1         0           -0.722            9.572           -5.131  # AU
      71      71     1         0           -0.722            6.242           -2.771  # AU
      72      72     1         0           -2.162            8.742           -2.771  # AU
      73      73     1         0            0.722           -9.572           -7.481  # AU
      74      74     1         0            2.162           -7.072           -7.481  # AU
      75      75     1         0            0.722           -7.912           -5.131  # AU
      76      76     1         0            2.162           -5.412           -5.131  # AU
      77      77     1         0            2.162           -8.742           -2.771  # AU
      78      78     1         0            0.722           -6.242           -2.771  # AU
      79      79     1         0            0.722           -4.577           -7.481  # AU
      80      80     1         0            2.162           -2.077           -7.481  # AU
      81      81     1         0            0.722           -2.917           -5.131  # AU
      82      82     1         0            2.162           -0.417           -5.131  # AU
      83      83     1         0            2.162           -3.747           -2.771  # AU
      84      84     1         0            0.722           -1.247           -2.771  # AU
      85      85     1         0            0.722            0.418           -7.481  # AU
      86      86     1         0            2.162            2.918           -7.481  # AU
      87      87     1         0            0.722            2.078           -5.131  # AU
      88      88     1         0            2.162            4.578           -5.131  # AU
      89      89     1         0            2.162            1.248           -2.771  # AU
      90      90     1         0            0.722            3.748           -2.771  # AU
      91      91     1         0            0.722            5.412           -7.481  # AU
      92      92     1         0            2.162            7.912           -7.481  # AU
      93      93     1         0            0.722            7.072           -5.131  # AU
      94      94     1         0            2.162            9.572           -5.131  # AU
      95      95     1         0            2.162            6.242           -2.771  # AU
      96      96     1         0            0.722            8.742           -2.771  # AU
      97      97     1         0            3.606           -9.572           -7.481  # AU
      98      98     1         0            5.046           -7.072           -7.481  # AU
      99      99     1         0            3.606           -7.912           -5.131  # AU
     100     100     1         0            5.046           -5.412           -5.131  # AU
     101     101     1         0            5.046           -8.742           -2.771  # AU
     102     102     1         0            3.606           -6.242           -2.771  # AU
     103     103     1         0            3.606           -4.577           -7.481  # AU
     104     104     1         0            5.046           -2.077           -7.481  # AU
     105     105     1         0            3.606           -2.917           -5.131  # AU
     106     106     1         0            5.046           -0.417           -5.131  # AU
     107     107     1         0            5.046           -3.747           -2.771  # AU
     108     108     1         0            3.606           -1.247           -2.771  # AU
     109     109     1         0            3.606            0.418           -7.481  # AU
     110     110     1         0            5.046            2.918           -7.481  # AU
     111     111     1         0            3.606            2.078           -5.131  # AU
     112     112     1         0            5.046            4.578           -5.131  # AU
     113     113     1         0            5.046            1.248           -2.771  # AU
     114     114     1         0            3.606            3.748           -2.771  # AU
     115     115     1         0            3.606            5.412           -7.481  # AU
     116     116     1         0            5.046            7.912           -7.481  # AU
     117     117     1         0            3.606            7.072           -5.131  # AU
     118     118     1         0            5.046            9.572           -5.131  # AU
     119     119     1         0            5.046            6.242           -2.771  # AU
     120     120     1         0            3.606            8.742           -2.771  # AU
     121     121     1         0             6.49           -9.572           -7.481  # AU
     122     122     1         0            7.929           -7.072           -7.481  # AU
     123     123     1         0             6.49           -7.912           -5.131  # AU
     124     124     1         0            7.929           -5.412           -5.131  # AU
     125     125     1         0            7.929           -8.742           -2.771  # AU
     126     126     1         0             6.49           -6.242           -2.771  # AU
     127     127     1         0             6.49           -4.577           -7.481  # AU
     128     128     1         0            7.929           -2.077           -7.481  # AU
     129     129     1         0             6.49           -2.917           -5.131  # AU
     130     130     1         0            7.929           -0.417           -5.131  # AU
     131     131     1         0            7.929           -3.747           -2.771  # AU
     132     132     1         0             6.49           -1.247           -2.771  # AU
     133     133     1         0             6.49            0.418           -7.481  # AU
     134     134     1         0            7.929            2.918           -7.481  # AU
     135     135     1         0             6.49            2.078           -5.131  # AU
     136     136     1         0            7.929            4.578           -5.131  # AU
     137     137     1         0            7.929            1.248           -2.771  # AU
     138     138     1         0             6.49            3.748           -2.771  # AU
     139     139     1         0             6.49            5.412           -7.481  # AU
     140     140     1         0            7.929            7.912           -7.481  # AU
     141     141     1         0             6.49            7.072           -5.131  # AU
     142     142     1         0            7.929            9.572           -5.131  # AU
     143     143     1         0            7.929            6.242           -2.771  # AU
     144     144     1         0             6.49            8.742           -2.771  # AU
     145     145     2         1             3.69            8.629            0.000  # SOD
