LAMMPS data file via write_data, version 7 Aug 2019, timestep = 17

1441 atoms
2 atom types

9.5692267392453156e-01 2.9664602891660422e+01 xlo xhi
5.5247960016523612e-01 3.0386378009088105e+01 ylo yhi
1.1884930960675590e+00 5.9316163036333464e+01 zlo zhi

Masses

1 196.966
2 22.9898

Pair Coeffs # lj/charmmfsw/coul/charmmfsh/bsct

1 5.29 2.62904 5.29 2.62904
2 0.0469 2.42993 0.0469 2.42993

Atoms # full

685 0 1 0.0000000000000000e+00 7.1769200544340555e+00 4.1435971903019730e+00 2.5304466361949425e+00 0 0 0
713 0 1 0.0000000000000000e+00 2.8707680217736704e+00 6.6297553910455465e+00 2.5304466361949420e+00 0 0 0
714 0 1 0.0000000000000000e+00 4.3061520326604663e+00 4.1435971903019739e+00 2.5304466361949416e+00 0 0 0
715 0 1 0.0000000000000000e+00 1.4353840108868778e+00 4.1435971903019739e+00 2.5304466361949403e+00 0 0 0
716 0 1 0.0000000000000000e+00 5.7415360435472609e+00 6.6297553910455456e+00 2.5304466361949429e+00 0 0 0
718 0 1 0.0000000000000000e+00 7.1769200544340546e+00 5.8010359233450188e+00 4.8988768266298619e+00 0 0 0
719 0 1 0.0000000000000000e+00 4.3061520326604672e+00 5.8010359233450188e+00 4.8988768266298619e+00 0 0 0
723 0 1 0.0000000000000000e+00 7.1769200544340563e+00 7.4584746701930582e+00 7.2460402004197055e+00 0 0 0
751 0 1 0.0000000000000000e+00 1.4353840108868789e+00 5.8010359233450188e+00 4.8988768266298601e+00 0 0 0
754 0 1 0.0000000000000000e+00 4.3061520326604672e+00 7.4584746701930573e+00 7.2460402004197038e+00 0 0 0
755 0 1 0.0000000000000000e+00 1.4353840108868769e+00 7.4584746701930582e+00 7.2460402004197046e+00 0 0 0
930 0 1 0.0000000000000000e+00 5.7415360435472618e+00 1.6574389895584012e+00 2.5304466361949389e+00 0 0 0
934 0 1 0.0000000000000000e+00 7.1769200544340563e+00 8.2871952185787312e-01 4.8988768266298583e+00 0 0 0
962 0 1 0.0000000000000000e+00 2.8707680217736713e+00 1.6574389895584001e+00 2.5304466361949385e+00 0 0 0
963 0 1 0.0000000000000000e+00 2.8707680217736713e+00 3.3148777226014463e+00 4.8988768266298592e+00 0 0 0
964 0 1 0.0000000000000000e+00 4.3061520326604672e+00 8.2871952185787079e-01 4.8988768266298575e+00 0 0 0
965 0 1 0.0000000000000000e+00 1.4353840108868769e+00 8.2871952185787268e-01 4.8988768266298557e+00 0 0 0
966 0 1 0.0000000000000000e+00 5.7415360435472600e+00 3.3148777226014459e+00 4.8988768266298601e+00 0 0 0
967 0 1 0.0000000000000000e+00 5.7415360435472600e+00 4.9723164694494848e+00 7.2460402004197029e+00 0 0 0
968 0 1 0.0000000000000000e+00 7.1769200544340563e+00 2.4861582687059132e+00 7.2460402004197029e+00 0 0 0
969 0 1 0.0000000000000000e+00 4.3061520326604663e+00 2.4861582687059114e+00 7.2460402004197020e+00 0 0 0
1001 0 1 0.0000000000000000e+00 1.4353840108868807e+00 2.4861582687059118e+00 7.2460402004197011e+00 0 0 0
1002 0 1 0.0000000000000000e+00 2.8707680217736735e+00 4.9723164694494848e+00 7.2460402004197029e+00 0 0 0
661 0 1 0.0000000000000000e+00 1.4353840108868031e+01 6.6297553910455473e+00 2.5304466361949434e+00 0 0 0
663 0 1 0.0000000000000000e+00 1.2918456097981236e+01 4.1435971903019748e+00 2.5304466361949447e+00 0 0 0
683 0 1 0.0000000000000000e+00 8.6123040653208509e+00 6.6297553910455456e+00 2.5304466361949434e+00 0 0 0
684 0 1 0.0000000000000000e+00 1.0047688076207647e+01 4.1435971903019748e+00 2.5304466361949438e+00 0 0 0
686 0 1 0.0000000000000000e+00 1.1483072087094440e+01 6.6297553910455456e+00 2.5304466361949443e+00 0 0 0
688 0 1 0.0000000000000000e+00 1.2918456097981235e+01 5.8010359233450171e+00 4.8988768266298637e+00 0 0 0
689 0 1 0.0000000000000000e+00 1.0047688076207647e+01 5.8010359233450197e+00 4.8988768266298628e+00 0 0 0
693 0 1 0.0000000000000000e+00 1.2918456097981235e+01 7.4584746701930582e+00 7.2460402004197055e+00 0 0 0
722 0 1 0.0000000000000000e+00 1.0047688076207649e+01 7.4584746701930573e+00 7.2460402004197046e+00 0 0 0
906 0 1 0.0000000000000000e+00 1.1483072087094442e+01 1.6574389895584005e+00 2.5304466361949411e+00 0 0 0
907 0 1 0.0000000000000000e+00 1.4353840108868031e+01 1.6574389895584027e+00 2.5304466361949425e+00 0 0 0
908 0 1 0.0000000000000000e+00 1.4353840108868031e+01 3.3148777226014463e+00 4.8988768266298628e+00 0 0 0
910 0 1 0.0000000000000000e+00 1.2918456097981235e+01 8.2871952185787490e-01 4.8988768266298628e+00 0 0 0
931 0 1 0.0000000000000000e+00 8.6123040653208509e+00 1.6574389895584025e+00 2.5304466361949403e+00 0 0 0
932 0 1 0.0000000000000000e+00 8.6123040653208491e+00 3.3148777226014454e+00 4.8988768266298610e+00 0 0 0
933 0 1 0.0000000000000000e+00 1.0047688076207647e+01 8.2871952185787512e-01 4.8988768266298583e+00 0 0 0
935 0 1 0.0000000000000000e+00 1.1483072087094442e+01 3.3148777226014463e+00 4.8988768266298628e+00 0 0 0
936 0 1 0.0000000000000000e+00 1.1483072087094442e+01 4.9723164694494866e+00 7.2460402004197046e+00 0 0 0
937 0 1 0.0000000000000000e+00 1.2918456097981236e+01 2.4861582687059127e+00 7.2460402004197046e+00 0 0 0
938 0 1 0.0000000000000000e+00 1.0047688076207647e+01 2.4861582687059136e+00 7.2460402004197038e+00 0 0 0
939 0 1 0.0000000000000000e+00 1.4353840108868031e+01 4.9723164694494848e+00 7.2460402004197055e+00 0 0 0
970 0 1 0.0000000000000000e+00 8.6123040653208509e+00 4.9723164694494839e+00 7.2460402004197038e+00 0 0 0
647 0 1 0.0000000000000000e+00 2.0095376152415209e+01 6.6297553910455465e+00 2.5304466361949420e+00 0 0 0
648 0 1 0.0000000000000000e+00 2.1530760163302002e+01 4.1435971903019713e+00 2.5304466361949425e+00 0 0 0
649 0 1 0.0000000000000000e+00 1.8659992141528413e+01 4.1435971903019730e+00 2.5304466361949416e+00 0 0 0
653 0 1 0.0000000000000000e+00 2.1530760163302002e+01 5.8010359233450197e+00 4.8988768266298628e+00 0 0 0
662 0 1 0.0000000000000000e+00 1.5789224119754827e+01 4.1435971903019739e+00 2.5304466361949429e+00 0 0 0
664 0 1 0.0000000000000000e+00 1.7224608130641620e+01 6.6297553910455465e+00 2.5304466361949407e+00 0 0 0
666 0 1 0.0000000000000000e+00 1.8659992141528413e+01 5.8010359233450179e+00 4.8988768266298619e+00 0 0 0
667 0 1 0.0000000000000000e+00 1.5789224119754826e+01 5.8010359233450188e+00 4.8988768266298628e+00 0 0 0
670 0 1 0.0000000000000000e+00 2.1530760163302002e+01 7.4584746701930573e+00 7.2460402004197046e+00 0 0 0
671 0 1 0.0000000000000000e+00 1.8659992141528413e+01 7.4584746701930582e+00 7.2460402004197038e+00 0 0 0
692 0 1 0.0000000000000000e+00 1.5789224119754826e+01 7.4584746701930573e+00 7.2460402004197038e+00 0 0 0
890 0 1 0.0000000000000000e+00 1.7224608130641617e+01 1.6574389895584034e+00 2.5304466361949411e+00 0 0 0
891 0 1 0.0000000000000000e+00 2.0095376152415209e+01 1.6574389895584003e+00 2.5304466361949398e+00 0 0 0
892 0 1 0.0000000000000000e+00 2.0095376152415209e+01 3.3148777226014472e+00 4.8988768266298628e+00 0 0 0
893 0 1 0.0000000000000000e+00 2.1530760163302002e+01 8.2871952185787157e-01 4.8988768266298575e+00 0 0 0
894 0 1 0.0000000000000000e+00 1.8659992141528413e+01 8.2871952185787257e-01 4.8988768266298610e+00 0 0 0
898 0 1 0.0000000000000000e+00 2.1530760163302002e+01 2.4861582687059132e+00 7.2460402004197029e+00 0 0 0
909 0 1 0.0000000000000000e+00 1.5789224119754826e+01 8.2871952185787390e-01 4.8988768266298601e+00 0 0 0
911 0 1 0.0000000000000000e+00 1.7224608130641620e+01 3.3148777226014468e+00 4.8988768266298619e+00 0 0 0
912 0 1 0.0000000000000000e+00 1.7224608130641617e+01 4.9723164694494848e+00 7.2460402004197038e+00 0 0 0
913 0 1 0.0000000000000000e+00 1.8659992141528413e+01 2.4861582687059127e+00 7.2460402004197029e+00 0 0 0
914 0 1 0.0000000000000000e+00 1.5789224119754824e+01 2.4861582687059136e+00 7.2460402004197046e+00 0 0 0
915 0 1 0.0000000000000000e+00 2.0095376152415209e+01 4.9723164694494857e+00 7.2460402004197038e+00 0 0 0
641 0 1 0.0000000000000000e+00 2.5836912195962384e+01 6.6297553910455473e+00 2.5304466361949411e+00 0 0 0
642 0 1 0.0000000000000000e+00 2.7272296206849180e+01 4.1435971903019748e+00 2.5304466361949389e+00 0 0 0
643 0 1 0.0000000000000000e+00 2.4401528185075588e+01 4.1435971903019730e+00 2.5304466361949411e+00 0 0 0
644 0 1 0.0000000000000000e+00 2.8707680217735973e+01 6.6297553910455473e+00 2.5304466361949407e+00 0 0 0
646 0 1 0.0000000000000000e+00 2.7272296206849177e+01 5.8010359233450179e+00 4.8988768266298610e+00 0 0 0
650 0 1 0.0000000000000000e+00 2.2966144174188798e+01 6.6297553910455473e+00 2.5304466361949434e+00 0 0 0
652 0 1 0.0000000000000000e+00 2.4401528185075591e+01 5.8010359233450179e+00 4.8988768266298610e+00 0 0 0
656 0 1 0.0000000000000000e+00 2.7272296206849180e+01 7.4584746701930564e+00 7.2460402004197038e+00 0 0 0
657 0 1 0.0000000000000000e+00 2.4401528185075588e+01 7.4584746701930591e+00 7.2460402004197038e+00 0 0 0
881 0 1 0.0000000000000000e+00 2.8707680217735977e+01 1.6574389895584016e+00 2.5304466361949376e+00 0 0 0
882 0 1 0.0000000000000000e+00 2.2966144174188798e+01 1.6574389895584007e+00 2.5304466361949385e+00 0 0 0
883 0 1 0.0000000000000000e+00 2.5836912195962380e+01 1.6574389895584007e+00 2.5304466361949367e+00 0 0 0
884 0 1 0.0000000000000000e+00 2.5836912195962384e+01 3.3148777226014463e+00 4.8988768266298592e+00 0 0 0
885 0 1 0.0000000000000000e+00 2.7272296206849180e+01 8.2871952185787268e-01 4.8988768266298566e+00 0 0 0
886 0 1 0.0000000000000000e+00 2.4401528185075591e+01 8.2871952185787334e-01 4.8988768266298557e+00 0 0 0
887 0 1 0.0000000000000000e+00 2.8707680217735973e+01 3.3148777226014445e+00 4.8988768266298592e+00 0 0 0
888 0 1 0.0000000000000000e+00 2.8707680217735970e+01 4.9723164694494839e+00 7.2460402004197029e+00 0 0 0
889 0 1 0.0000000000000000e+00 2.7272296206849177e+01 2.4861582687059136e+00 7.2460402004197011e+00 0 0 0
895 0 1 0.0000000000000000e+00 2.2966144174188798e+01 3.3148777226014468e+00 4.8988768266298610e+00 0 0 0
896 0 1 0.0000000000000000e+00 2.2966144174188795e+01 4.9723164694494839e+00 7.2460402004197046e+00 0 0 0
897 0 1 0.0000000000000000e+00 2.4401528185075591e+01 2.4861582687059114e+00 7.2460402004197038e+00 0 0 0
899 0 1 0.0000000000000000e+00 2.5836912195962388e+01 4.9723164694494839e+00 7.2460402004197020e+00 0 0 0
255 0 1 0.0000000000000000e+00 7.1769200544340563e+00 1.4088229993276261e+01 2.5304466361949394e+00 0 0 0
284 0 1 0.0000000000000000e+00 4.3061520326604672e+00 1.4088229993276261e+01 2.5304466361949425e+00 0 0 0
285 0 1 0.0000000000000000e+00 1.4353840108868789e+00 1.4088229993276263e+01 2.5304466361949451e+00 0 0 0
457 0 1 0.0000000000000000e+00 5.7415360435472618e+00 1.1602071792532691e+01 2.5304466361949420e+00 0 0 0
458 0 1 0.0000000000000000e+00 7.1769200544340546e+00 9.1159135917891163e+00 2.5304466361949425e+00 0 0 0
459 0 1 0.0000000000000000e+00 4.3061520326604663e+00 9.1159135917891181e+00 2.5304466361949420e+00 0 0 0
463 0 1 0.0000000000000000e+00 7.1769200544340572e+00 1.0773352324832164e+01 4.8988768266298610e+00 0 0 0
491 0 1 0.0000000000000000e+00 1.4353840108868765e+00 9.1159135917891199e+00 2.5304466361949407e+00 0 0 0
492 0 1 0.0000000000000000e+00 2.8707680217736713e+00 1.1602071792532691e+01 2.5304466361949425e+00 0 0 0
493 0 1 0.0000000000000000e+00 2.8707680217736704e+00 1.3259510525575736e+01 4.8988768266298601e+00 0 0 0
494 0 1 0.0000000000000000e+00 4.3061520326604672e+00 1.0773352324832164e+01 4.8988768266298610e+00 0 0 0
495 0 1 0.0000000000000000e+00 1.4353840108868747e+00 1.0773352324832166e+01 4.8988768266298610e+00 0 0 0
496 0 1 0.0000000000000000e+00 5.7415360435472609e+00 1.3259510525575735e+01 4.8988768266298583e+00 0 0 0
497 0 1 0.0000000000000000e+00 5.7415360435472618e+00 1.4916949272423775e+01 7.2460402004197011e+00 0 0 0
498 0 1 0.0000000000000000e+00 7.1769200544340572e+00 1.2430791071680202e+01 7.2460402004197038e+00 0 0 0
499 0 1 0.0000000000000000e+00 4.3061520326604681e+00 1.2430791071680202e+01 7.2460402004197046e+00 0 0 0
531 0 1 0.0000000000000000e+00 1.4353840108868769e+00 1.2430791071680204e+01 7.2460402004197046e+00 0 0 0
532 0 1 0.0000000000000000e+00 2.8707680217736740e+00 1.4916949272423775e+01 7.2460402004197038e+00 0 0 0
717 0 1 0.0000000000000000e+00 5.7415360435472609e+00 8.2871941240885896e+00 4.8988768266298601e+00 0 0 0
752 0 1 0.0000000000000000e+00 2.8707680217736722e+00 8.2871941240885896e+00 4.8988768266298610e+00 0 0 0
753 0 1 0.0000000000000000e+00 2.8707680217736726e+00 9.9446328709366281e+00 7.2460402004197038e+00 0 0 0
756 0 1 0.0000000000000000e+00 5.7415360435472618e+00 9.9446328709366298e+00 7.2460402004197046e+00 0 0 0
233 0 1 0.0000000000000000e+00 1.2918456097981236e+01 1.4088229993276260e+01 2.5304466361949434e+00 0 0 0
254 0 1 0.0000000000000000e+00 1.0047688076207645e+01 1.4088229993276260e+01 2.5304466361949407e+00 0 0 0
431 0 1 0.0000000000000000e+00 1.1483072087094442e+01 1.1602071792532691e+01 2.5304466361949429e+00 0 0 0
432 0 1 0.0000000000000000e+00 1.2918456097981236e+01 9.1159135917891163e+00 2.5304466361949434e+00 0 0 0
433 0 1 0.0000000000000000e+00 1.0047688076207647e+01 9.1159135917891163e+00 2.5304466361949429e+00 0 0 0
434 0 1 0.0000000000000000e+00 1.4353840108868029e+01 1.1602071792532691e+01 2.5304466361949429e+00 0 0 0
435 0 1 0.0000000000000000e+00 1.4353840108868029e+01 1.3259510525575736e+01 4.8988768266298619e+00 0 0 0
437 0 1 0.0000000000000000e+00 1.2918456097981236e+01 1.0773352324832164e+01 4.8988768266298619e+00 0 0 0
460 0 1 0.0000000000000000e+00 8.6123040653208509e+00 1.1602071792532691e+01 2.5304466361949425e+00 0 0 0
461 0 1 0.0000000000000000e+00 8.6123040653208527e+00 1.3259510525575735e+01 4.8988768266298583e+00 0 0 0
462 0 1 0.0000000000000000e+00 1.0047688076207645e+01 1.0773352324832164e+01 4.8988768266298610e+00 0 0 0
464 0 1 0.0000000000000000e+00 1.1483072087094440e+01 1.3259510525575736e+01 4.8988768266298601e+00 0 0 0
465 0 1 0.0000000000000000e+00 1.1483072087094442e+01 1.4916949272423777e+01 7.2460402004197038e+00 0 0 0
466 0 1 0.0000000000000000e+00 1.2918456097981235e+01 1.2430791071680202e+01 7.2460402004197046e+00 0 0 0
467 0 1 0.0000000000000000e+00 1.0047688076207645e+01 1.2430791071680206e+01 7.2460402004197038e+00 0 0 0
468 0 1 0.0000000000000000e+00 1.4353840108868031e+01 1.4916949272423778e+01 7.2460402004197038e+00 0 0 0
500 0 1 0.0000000000000000e+00 8.6123040653208509e+00 1.4916949272423775e+01 7.2460402004197002e+00 0 0 0
687 0 1 0.0000000000000000e+00 1.1483072087094442e+01 8.2871941240885896e+00 4.8988768266298628e+00 0 0 0
690 0 1 0.0000000000000000e+00 1.4353840108868031e+01 8.2871941240885931e+00 4.8988768266298610e+00 0 0 0
691 0 1 0.0000000000000000e+00 1.4353840108868029e+01 9.9446328709366316e+00 7.2460402004197038e+00 0 0 0
720 0 1 0.0000000000000000e+00 8.6123040653208509e+00 8.2871941240885896e+00 4.8988768266298637e+00 0 0 0
721 0 1 0.0000000000000000e+00 8.6123040653208491e+00 9.9446328709366281e+00 7.2460402004197038e+00 0 0 0
724 0 1 0.0000000000000000e+00 1.1483072087094444e+01 9.9446328709366298e+00 7.2460402004197055e+00 0 0 0
218 0 1 0.0000000000000000e+00 2.1530760163301998e+01 1.4088229993276261e+01 2.5304466361949420e+00 0 0 0
219 0 1 0.0000000000000000e+00 1.8659992141528413e+01 1.4088229993276261e+01 2.5304466361949429e+00 0 0 0
232 0 1 0.0000000000000000e+00 1.5789224119754824e+01 1.4088229993276263e+01 2.5304466361949438e+00 0 0 0
405 0 1 0.0000000000000000e+00 2.1530760163302002e+01 9.1159135917891181e+00 2.5304466361949411e+00 0 0 0
413 0 1 0.0000000000000000e+00 1.7224608130641620e+01 1.1602071792532689e+01 2.5304466361949411e+00 0 0 0
414 0 1 0.0000000000000000e+00 1.8659992141528409e+01 9.1159135917891181e+00 2.5304466361949394e+00 0 0 0
415 0 1 0.0000000000000000e+00 1.5789224119754827e+01 9.1159135917891163e+00 2.5304466361949416e+00 0 0 0
416 0 1 0.0000000000000000e+00 2.0095376152415209e+01 1.1602071792532692e+01 2.5304466361949398e+00 0 0 0
417 0 1 0.0000000000000000e+00 2.0095376152415209e+01 1.3259510525575738e+01 4.8988768266298592e+00 0 0 0
418 0 1 0.0000000000000000e+00 2.1530760163302002e+01 1.0773352324832164e+01 4.8988768266298592e+00 0 0 0
419 0 1 0.0000000000000000e+00 1.8659992141528413e+01 1.0773352324832162e+01 4.8988768266298601e+00 0 0 0
423 0 1 0.0000000000000000e+00 2.1530760163302006e+01 1.2430791071680204e+01 7.2460402004197029e+00 0 0 0
436 0 1 0.0000000000000000e+00 1.5789224119754826e+01 1.0773352324832162e+01 4.8988768266298610e+00 0 0 0
438 0 1 0.0000000000000000e+00 1.7224608130641620e+01 1.3259510525575736e+01 4.8988768266298619e+00 0 0 0
439 0 1 0.0000000000000000e+00 1.7224608130641620e+01 1.4916949272423777e+01 7.2460402004197038e+00 0 0 0
440 0 1 0.0000000000000000e+00 1.8659992141528413e+01 1.2430791071680202e+01 7.2460402004197046e+00 0 0 0
441 0 1 0.0000000000000000e+00 1.5789224119754826e+01 1.2430791071680202e+01 7.2460402004197055e+00 0 0 0
442 0 1 0.0000000000000000e+00 2.0095376152415206e+01 1.4916949272423775e+01 7.2460402004197046e+00 0 0 0
665 0 1 0.0000000000000000e+00 1.7224608130641617e+01 8.2871941240885914e+00 4.8988768266298592e+00 0 0 0
668 0 1 0.0000000000000000e+00 2.0095376152415209e+01 8.2871941240885896e+00 4.8988768266298610e+00 0 0 0
669 0 1 0.0000000000000000e+00 2.0095376152415206e+01 9.9446328709366281e+00 7.2460402004197046e+00 0 0 0
694 0 1 0.0000000000000000e+00 1.7224608130641620e+01 9.9446328709366298e+00 7.2460402004197020e+00 0 0 0
212 0 1 0.0000000000000000e+00 2.7272296206849177e+01 1.4088229993276261e+01 2.5304466361949429e+00 0 0 0
213 0 1 0.0000000000000000e+00 2.4401528185075595e+01 1.4088229993276263e+01 2.5304466361949403e+00 0 0 0
401 0 1 0.0000000000000000e+00 2.8707680217735973e+01 1.1602071792532689e+01 2.5304466361949429e+00 0 0 0
402 0 1 0.0000000000000000e+00 2.7272296206849177e+01 9.1159135917891181e+00 2.5304466361949407e+00 0 0 0
403 0 1 0.0000000000000000e+00 2.2966144174188795e+01 1.1602071792532689e+01 2.5304466361949420e+00 0 0 0
404 0 1 0.0000000000000000e+00 2.4401528185075591e+01 9.1159135917891181e+00 2.5304466361949411e+00 0 0 0
406 0 1 0.0000000000000000e+00 2.5836912195962384e+01 1.1602071792532691e+01 2.5304466361949407e+00 0 0 0
407 0 1 0.0000000000000000e+00 2.5836912195962388e+01 1.3259510525575738e+01 4.8988768266298592e+00 0 0 0
408 0 1 0.0000000000000000e+00 2.7272296206849180e+01 1.0773352324832162e+01 4.8988768266298601e+00 0 0 0
409 0 1 0.0000000000000000e+00 2.4401528185075588e+01 1.0773352324832162e+01 4.8988768266298610e+00 0 0 0
410 0 1 0.0000000000000000e+00 2.8707680217735977e+01 1.3259510525575736e+01 4.8988768266298610e+00 0 0 0
411 0 1 0.0000000000000000e+00 2.8707680217735973e+01 1.4916949272423773e+01 7.2460402004197055e+00 0 0 0
412 0 1 0.0000000000000000e+00 2.7272296206849177e+01 1.2430791071680204e+01 7.2460402004197046e+00 0 0 0
420 0 1 0.0000000000000000e+00 2.2966144174188795e+01 1.3259510525575736e+01 4.8988768266298610e+00 0 0 0
421 0 1 0.0000000000000000e+00 2.2966144174188798e+01 1.4916949272423775e+01 7.2460402004197011e+00 0 0 0
422 0 1 0.0000000000000000e+00 2.4401528185075591e+01 1.2430791071680201e+01 7.2460402004197046e+00 0 0 0
424 0 1 0.0000000000000000e+00 2.5836912195962384e+01 1.4916949272423775e+01 7.2460402004197029e+00 0 0 0
645 0 1 0.0000000000000000e+00 2.8707680217735973e+01 8.2871941240885914e+00 4.8988768266298610e+00 0 0 0
651 0 1 0.0000000000000000e+00 2.2966144174188795e+01 8.2871941240885878e+00 4.8988768266298619e+00 0 0 0
654 0 1 0.0000000000000000e+00 2.5836912195962384e+01 8.2871941240885896e+00 4.8988768266298610e+00 0 0 0
655 0 1 0.0000000000000000e+00 2.5836912195962380e+01 9.9446328709366298e+00 7.2460402004197038e+00 0 0 0
658 0 1 0.0000000000000000e+00 2.8707680217735977e+01 9.9446328709366281e+00 7.2460402004197038e+00 0 0 0
672 0 1 0.0000000000000000e+00 2.2966144174188802e+01 9.9446328709366298e+00 7.2460402004197046e+00 0 0 0
136 0 1 0.0000000000000000e+00 5.7415360435472618e+00 2.1546704595506977e+01 2.5304466361949358e+00 0 0 0
137 0 1 0.0000000000000000e+00 7.1769200544340563e+00 1.9060546394763403e+01 2.5304466361949376e+00 0 0 0
138 0 1 0.0000000000000000e+00 4.3061520326604672e+00 1.9060546394763403e+01 2.5304466361949380e+00 0 0 0
142 0 1 0.0000000000000000e+00 7.1769200544340581e+00 2.0717985127806450e+01 4.8988768266298583e+00 0 0 0
162 0 1 0.0000000000000000e+00 1.4353840108868783e+00 1.9060546394763403e+01 2.5304466361949398e+00 0 0 0
163 0 1 0.0000000000000000e+00 2.8707680217736731e+00 2.1546704595506981e+01 2.5304466361949363e+00 0 0 0
165 0 1 0.0000000000000000e+00 4.3061520326604690e+00 2.0717985127806454e+01 4.8988768266298566e+00 0 0 0
166 0 1 0.0000000000000000e+00 1.4353840108868758e+00 2.0717985127806454e+01 4.8988768266298583e+00 0 0 0
169 0 1 0.0000000000000000e+00 7.1769200544340581e+00 2.2375423874654491e+01 7.2460402004197002e+00 0 0 0
170 0 1 0.0000000000000000e+00 4.3061520326604681e+00 2.2375423874654494e+01 7.2460402004197002e+00 0 0 0
186 0 1 0.0000000000000000e+00 1.4353840108868776e+00 2.2375423874654494e+01 7.2460402004197002e+00 0 0 0
283 0 1 0.0000000000000000e+00 2.8707680217736709e+00 1.6574388194019836e+01 2.5304466361949429e+00 0 0 0
286 0 1 0.0000000000000000e+00 5.7415360435472627e+00 1.6574388194019836e+01 2.5304466361949389e+00 0 0 0
287 0 1 0.0000000000000000e+00 5.7415360435472618e+00 1.8231826927062880e+01 4.8988768266298566e+00 0 0 0
288 0 1 0.0000000000000000e+00 7.1769200544340555e+00 1.5745668726319307e+01 4.8988768266298583e+00 0 0 0
289 0 1 0.0000000000000000e+00 4.3061520326604672e+00 1.5745668726319309e+01 4.8988768266298601e+00 0 0 0
293 0 1 0.0000000000000000e+00 7.1769200544340563e+00 1.7403107473167346e+01 7.2460402004197002e+00 0 0 0
320 0 1 0.0000000000000000e+00 1.4353840108868776e+00 1.5745668726319307e+01 4.8988768266298610e+00 0 0 0
321 0 1 0.0000000000000000e+00 2.8707680217736722e+00 1.8231826927062880e+01 4.8988768266298583e+00 0 0 0
322 0 1 0.0000000000000000e+00 2.8707680217736726e+00 1.9889265673910920e+01 7.2460402004197020e+00 0 0 0
323 0 1 0.0000000000000000e+00 4.3061520326604663e+00 1.7403107473167349e+01 7.2460402004197029e+00 0 0 0
324 0 1 0.0000000000000000e+00 1.4353840108868767e+00 1.7403107473167349e+01 7.2460402004197029e+00 0 0 0
325 0 1 0.0000000000000000e+00 5.7415360435472618e+00 1.9889265673910920e+01 7.2460402004197002e+00 0 0 0
111 0 1 0.0000000000000000e+00 1.1483072087094442e+01 2.1546704595506977e+01 2.5304466361949394e+00 0 0 0
112 0 1 0.0000000000000000e+00 1.2918456097981240e+01 1.9060546394763406e+01 2.5304466361949394e+00 0 0 0
113 0 1 0.0000000000000000e+00 1.0047688076207645e+01 1.9060546394763406e+01 2.5304466361949394e+00 0 0 0
114 0 1 0.0000000000000000e+00 1.4353840108868029e+01 2.1546704595506981e+01 2.5304466361949371e+00 0 0 0
117 0 1 0.0000000000000000e+00 1.2918456097981238e+01 2.0717985127806458e+01 4.8988768266298583e+00 0 0 0
139 0 1 0.0000000000000000e+00 8.6123040653208527e+00 2.1546704595506981e+01 2.5304466361949380e+00 0 0 0
141 0 1 0.0000000000000000e+00 1.0047688076207645e+01 2.0717985127806454e+01 4.8988768266298592e+00 0 0 0
145 0 1 0.0000000000000000e+00 1.2918456097981235e+01 2.2375423874654494e+01 7.2460402004197002e+00 0 0 0
146 0 1 0.0000000000000000e+00 1.0047688076207645e+01 2.2375423874654494e+01 7.2460402004197011e+00 0 0 0
231 0 1 0.0000000000000000e+00 1.4353840108868033e+01 1.6574388194019836e+01 2.5304466361949434e+00 0 0 0
253 0 1 0.0000000000000000e+00 8.6123040653208527e+00 1.6574388194019836e+01 2.5304466361949371e+00 0 0 0
256 0 1 0.0000000000000000e+00 1.1483072087094440e+01 1.6574388194019836e+01 2.5304466361949411e+00 0 0 0
257 0 1 0.0000000000000000e+00 1.1483072087094440e+01 1.8231826927062880e+01 4.8988768266298583e+00 0 0 0
258 0 1 0.0000000000000000e+00 1.2918456097981236e+01 1.5745668726319309e+01 4.8988768266298619e+00 0 0 0
259 0 1 0.0000000000000000e+00 1.0047688076207649e+01 1.5745668726319309e+01 4.8988768266298583e+00 0 0 0
260 0 1 0.0000000000000000e+00 1.4353840108868031e+01 1.8231826927062880e+01 4.8988768266298566e+00 0 0 0
261 0 1 0.0000000000000000e+00 1.4353840108868031e+01 1.9889265673910923e+01 7.2460402004197002e+00 0 0 0
263 0 1 0.0000000000000000e+00 1.2918456097981238e+01 1.7403107473167346e+01 7.2460402004197029e+00 0 0 0
290 0 1 0.0000000000000000e+00 8.6123040653208509e+00 1.8231826927062883e+01 4.8988768266298566e+00 0 0 0
291 0 1 0.0000000000000000e+00 8.6123040653208491e+00 1.9889265673910923e+01 7.2460402004196993e+00 0 0 0
292 0 1 0.0000000000000000e+00 1.0047688076207647e+01 1.7403107473167346e+01 7.2460402004197020e+00 0 0 0
294 0 1 0.0000000000000000e+00 1.1483072087094442e+01 1.9889265673910923e+01 7.2460402004197011e+00 0 0 0
85 0 1 0.0000000000000000e+00 2.1530760163302002e+01 1.9060546394763406e+01 2.5304466361949345e+00 0 0 0
93 0 1 0.0000000000000000e+00 1.7224608130641617e+01 2.1546704595506981e+01 2.5304466361949323e+00 0 0 0
94 0 1 0.0000000000000000e+00 1.8659992141528413e+01 1.9060546394763406e+01 2.5304466361949349e+00 0 0 0
95 0 1 0.0000000000000000e+00 1.5789224119754826e+01 1.9060546394763406e+01 2.5304466361949358e+00 0 0 0
96 0 1 0.0000000000000000e+00 2.0095376152415209e+01 2.1546704595506981e+01 2.5304466361949332e+00 0 0 0
98 0 1 0.0000000000000000e+00 2.1530760163302002e+01 2.0717985127806458e+01 4.8988768266298548e+00 0 0 0
99 0 1 0.0000000000000000e+00 1.8659992141528413e+01 2.0717985127806454e+01 4.8988768266298530e+00 0 0 0
103 0 1 0.0000000000000000e+00 2.1530760163302006e+01 2.2375423874654487e+01 7.2460402004196993e+00 0 0 0
116 0 1 0.0000000000000000e+00 1.5789224119754824e+01 2.0717985127806454e+01 4.8988768266298557e+00 0 0 0
120 0 1 0.0000000000000000e+00 1.8659992141528409e+01 2.2375423874654494e+01 7.2460402004196984e+00 0 0 0
121 0 1 0.0000000000000000e+00 1.5789224119754826e+01 2.2375423874654491e+01 7.2460402004197002e+00 0 0 0
217 0 1 0.0000000000000000e+00 2.0095376152415209e+01 1.6574388194019836e+01 2.5304466361949398e+00 0 0 0
223 0 1 0.0000000000000000e+00 2.1530760163302002e+01 1.5745668726319307e+01 4.8988768266298583e+00 0 0 0
234 0 1 0.0000000000000000e+00 1.7224608130641617e+01 1.6574388194019836e+01 2.5304466361949411e+00 0 0 0
235 0 1 0.0000000000000000e+00 1.7224608130641624e+01 1.8231826927062880e+01 4.8988768266298566e+00 0 0 0
236 0 1 0.0000000000000000e+00 1.8659992141528413e+01 1.5745668726319307e+01 4.8988768266298610e+00 0 0 0
237 0 1 0.0000000000000000e+00 1.5789224119754826e+01 1.5745668726319309e+01 4.8988768266298619e+00 0 0 0
238 0 1 0.0000000000000000e+00 2.0095376152415206e+01 1.8231826927062880e+01 4.8988768266298557e+00 0 0 0
239 0 1 0.0000000000000000e+00 2.0095376152415209e+01 1.9889265673910916e+01 7.2460402004196984e+00 0 0 0
240 0 1 0.0000000000000000e+00 2.1530760163302002e+01 1.7403107473167346e+01 7.2460402004197020e+00 0 0 0
241 0 1 0.0000000000000000e+00 1.8659992141528413e+01 1.7403107473167349e+01 7.2460402004197011e+00 0 0 0
262 0 1 0.0000000000000000e+00 1.5789224119754826e+01 1.7403107473167346e+01 7.2460402004197020e+00 0 0 0
264 0 1 0.0000000000000000e+00 1.7224608130641620e+01 1.9889265673910920e+01 7.2460402004196975e+00 0 0 0
81 0 1 0.0000000000000000e+00 2.8707680217735973e+01 2.1546704595506981e+01 2.5304466361949371e+00 0 0 0
82 0 1 0.0000000000000000e+00 2.7272296206849180e+01 1.9060546394763406e+01 2.5304466361949376e+00 0 0 0
83 0 1 0.0000000000000000e+00 2.2966144174188798e+01 2.1546704595506981e+01 2.5304466361949340e+00 0 0 0
84 0 1 0.0000000000000000e+00 2.4401528185075591e+01 1.9060546394763406e+01 2.5304466361949354e+00 0 0 0
86 0 1 0.0000000000000000e+00 2.5836912195962384e+01 2.1546704595506977e+01 2.5304466361949340e+00 0 0 0
88 0 1 0.0000000000000000e+00 2.7272296206849180e+01 2.0717985127806454e+01 4.8988768266298548e+00 0 0 0
89 0 1 0.0000000000000000e+00 2.4401528185075591e+01 2.0717985127806454e+01 4.8988768266298548e+00 0 0 0
92 0 1 0.0000000000000000e+00 2.7272296206849180e+01 2.2375423874654494e+01 7.2460402004196993e+00 0 0 0
102 0 1 0.0000000000000000e+00 2.4401528185075588e+01 2.2375423874654491e+01 7.2460402004196975e+00 0 0 0
211 0 1 0.0000000000000000e+00 2.5836912195962384e+01 1.6574388194019836e+01 2.5304466361949398e+00 0 0 0
214 0 1 0.0000000000000000e+00 2.8707680217735977e+01 1.6574388194019836e+01 2.5304466361949429e+00 0 0 0
215 0 1 0.0000000000000000e+00 2.8707680217735973e+01 1.8231826927062880e+01 4.8988768266298592e+00 0 0 0
216 0 1 0.0000000000000000e+00 2.7272296206849177e+01 1.5745668726319307e+01 4.8988768266298610e+00 0 0 0
220 0 1 0.0000000000000000e+00 2.2966144174188798e+01 1.6574388194019836e+01 2.5304466361949394e+00 0 0 0
221 0 1 0.0000000000000000e+00 2.2966144174188798e+01 1.8231826927062880e+01 4.8988768266298539e+00 0 0 0
222 0 1 0.0000000000000000e+00 2.4401528185075591e+01 1.5745668726319309e+01 4.8988768266298592e+00 0 0 0
224 0 1 0.0000000000000000e+00 2.5836912195962384e+01 1.8231826927062880e+01 4.8988768266298566e+00 0 0 0
225 0 1 0.0000000000000000e+00 2.5836912195962380e+01 1.9889265673910920e+01 7.2460402004196975e+00 0 0 0
226 0 1 0.0000000000000000e+00 2.7272296206849177e+01 1.7403107473167349e+01 7.2460402004197020e+00 0 0 0
227 0 1 0.0000000000000000e+00 2.4401528185075591e+01 1.7403107473167346e+01 7.2460402004197011e+00 0 0 0
228 0 1 0.0000000000000000e+00 2.8707680217735977e+01 1.9889265673910920e+01 7.2460402004197011e+00 0 0 0
242 0 1 0.0000000000000000e+00 2.2966144174188798e+01 1.9889265673910923e+01 7.2460402004196967e+00 0 0 0
8 0 1 0.0000000000000000e+00 7.1769200544340572e+00 2.9005179197737696e+01 2.5304466361949358e+00 0 0 0
9 0 1 0.0000000000000000e+00 4.3061520326604672e+00 2.9005179197737700e+01 2.5304466361949376e+00 0 0 0
10 0 1 0.0000000000000000e+00 1.4353840108868776e+00 2.9005179197737700e+01 2.5304466361949376e+00 0 0 0
46 0 1 0.0000000000000000e+00 7.1769200544340555e+00 2.4032862796250551e+01 2.5304466361949349e+00 0 0 0
58 0 1 0.0000000000000000e+00 2.8707680217736744e+00 2.6519020996994122e+01 2.5304466361949367e+00 0 0 0
59 0 1 0.0000000000000000e+00 4.3061520326604672e+00 2.4032862796250555e+01 2.5304466361949358e+00 0 0 0
60 0 1 0.0000000000000000e+00 1.4353840108868787e+00 2.4032862796250555e+01 2.5304466361949371e+00 0 0 0
61 0 1 0.0000000000000000e+00 5.7415360435472627e+00 2.6519020996994126e+01 2.5304466361949340e+00 0 0 0
62 0 1 0.0000000000000000e+00 5.7415360435472600e+00 2.8176459730037173e+01 4.8988768266298539e+00 0 0 0