LAMMPS data file via write_data, version 7 Aug 2019, timestep = 0

676 atoms
12 atom types
367 bonds
8 bond types
242 angles
13 angle types
132 dihedrals
18 dihedral types

#-9.8626932000000007e+00 9.8626932000000007e+00 xlo xhi
#-9.8626932000000007e+00 9.8626932000000007e+00 ylo yhi
#-1.2328367000000000e+01 1.2328367000000000e+01 zlo zhi

-99 99 xlo xhi
-99 99 ylo yhi
-99 99 zlo zhi


Masses

1 1.008
2 1.008
3 12.011
4 12.011
5 15.9994
6 15.9994
7 32.06
8 196.966
9 1.008
10 15.9994
11 35.45
12 22.9898

Atoms # full

1 1 8 0.0000000000000000e+00 -7.9290000000000003e+00 -9.5719999999999992e+00 -7.4809999999999999e+00 0 0 0
2 2 8 0.0000000000000000e+00 -6.4889999999999999e+00 -7.0720000000000001e+00 -7.4809999999999999e+00 0 0 0
3 3 8 0.0000000000000000e+00 -7.9290000000000003e+00 -7.9119999999999999e+00 -5.1310000000000002e+00 0 0 0
4 4 8 0.0000000000000000e+00 -6.4889999999999999e+00 -5.4119999999999999e+00 -5.1310000000000002e+00 0 0 0
5 5 8 0.0000000000000000e+00 -6.4889999999999999e+00 -8.7420000000000009e+00 -2.7709999999999999e+00 0 0 0
6 6 8 0.0000000000000000e+00 -7.9290000000000003e+00 -6.2420000000000000e+00 -2.7709999999999999e+00 0 0 0
7 7 8 0.0000000000000000e+00 -7.9290000000000003e+00 -4.5770000000000000e+00 -7.4809999999999999e+00 0 0 0
8 8 8 0.0000000000000000e+00 -6.4889999999999999e+00 -2.0770000000000000e+00 -7.4809999999999999e+00 0 0 0
9 9 8 0.0000000000000000e+00 -7.9290000000000003e+00 -2.9169999999999998e+00 -5.1310000000000002e+00 0 0 0
10 10 8 0.0000000000000000e+00 -6.4889999999999999e+00 -4.1699999999999998e-01 -5.1310000000000002e+00 0 0 0
11 11 8 0.0000000000000000e+00 -6.4889999999999999e+00 -3.7469999999999999e+00 -2.7709999999999999e+00 0 0 0
12 12 8 0.0000000000000000e+00 -7.9290000000000003e+00 -1.2470000000000001e+00 -2.7709999999999999e+00 0 0 0
13 13 8 0.0000000000000000e+00 -7.9290000000000003e+00 4.1799999999999998e-01 -7.4809999999999999e+00 0 0 0
14 14 8 0.0000000000000000e+00 -6.4889999999999999e+00 2.9180000000000001e+00 -7.4809999999999999e+00 0 0 0
15 15 8 0.0000000000000000e+00 -7.9290000000000003e+00 2.0779999999999998e+00 -5.1310000000000002e+00 0 0 0
16 16 8 0.0000000000000000e+00 -6.4889999999999999e+00 4.5780000000000003e+00 -5.1310000000000002e+00 0 0 0
17 17 8 0.0000000000000000e+00 -6.4889999999999999e+00 1.2480000000000000e+00 -2.7709999999999999e+00 0 0 0
18 18 8 0.0000000000000000e+00 -7.9290000000000003e+00 3.7480000000000002e+00 -2.7709999999999999e+00 0 0 0
19 19 8 0.0000000000000000e+00 -7.9290000000000003e+00 5.4119999999999999e+00 -7.4809999999999999e+00 0 0 0
20 20 8 0.0000000000000000e+00 -6.4889999999999999e+00 7.9119999999999999e+00 -7.4809999999999999e+00 0 0 0
21 21 8 0.0000000000000000e+00 -7.9290000000000003e+00 7.0720000000000001e+00 -5.1310000000000002e+00 0 0 0
22 22 8 0.0000000000000000e+00 -6.4889999999999999e+00 9.5719999999999992e+00 -5.1310000000000002e+00 0 0 0
23 23 8 0.0000000000000000e+00 -6.4889999999999999e+00 6.2420000000000000e+00 -2.7709999999999999e+00 0 0 0
24 24 8 0.0000000000000000e+00 -7.9290000000000003e+00 8.7420000000000009e+00 -2.7709999999999999e+00 0 0 0
25 25 8 0.0000000000000000e+00 -5.0449999999999999e+00 -9.5719999999999992e+00 -7.4809999999999999e+00 0 0 0
26 26 8 0.0000000000000000e+00 -3.6050000000000000e+00 -7.0720000000000001e+00 -7.4809999999999999e+00 0 0 0
27 27 8 0.0000000000000000e+00 -5.0449999999999999e+00 -7.9119999999999999e+00 -5.1310000000000002e+00 0 0 0
28 28 8 0.0000000000000000e+00 -3.6050000000000000e+00 -5.4119999999999999e+00 -5.1310000000000002e+00 0 0 0
29 29 8 0.0000000000000000e+00 -3.6050000000000000e+00 -8.7420000000000009e+00 -2.7709999999999999e+00 0 0 0
30 30 8 0.0000000000000000e+00 -5.0449999999999999e+00 -6.2420000000000000e+00 -2.7709999999999999e+00 0 0 0
31 31 8 0.0000000000000000e+00 -5.0449999999999999e+00 -4.5770000000000000e+00 -7.4809999999999999e+00 0 0 0
32 32 8 0.0000000000000000e+00 -3.6050000000000000e+00 -2.0770000000000000e+00 -7.4809999999999999e+00 0 0 0
33 33 8 0.0000000000000000e+00 -5.0449999999999999e+00 -2.9169999999999998e+00 -5.1310000000000002e+00 0 0 0
34 34 8 0.0000000000000000e+00 -3.6050000000000000e+00 -4.1699999999999998e-01 -5.1310000000000002e+00 0 0 0
35 35 8 0.0000000000000000e+00 -3.6050000000000000e+00 -3.7469999999999999e+00 -2.7709999999999999e+00 0 0 0
36 36 8 0.0000000000000000e+00 -5.0449999999999999e+00 -1.2470000000000001e+00 -2.7709999999999999e+00 0 0 0
37 37 8 0.0000000000000000e+00 -5.0449999999999999e+00 4.1799999999999998e-01 -7.4809999999999999e+00 0 0 0
38 38 8 0.0000000000000000e+00 -3.6050000000000000e+00 2.9180000000000001e+00 -7.4809999999999999e+00 0 0 0
39 39 8 0.0000000000000000e+00 -5.0449999999999999e+00 2.0779999999999998e+00 -5.1310000000000002e+00 0 0 0
40 40 8 0.0000000000000000e+00 -3.6050000000000000e+00 4.5780000000000003e+00 -5.1310000000000002e+00 0 0 0
41 41 8 0.0000000000000000e+00 -3.6050000000000000e+00 1.2480000000000000e+00 -2.7709999999999999e+00 0 0 0
42 42 8 0.0000000000000000e+00 -5.0449999999999999e+00 3.7480000000000002e+00 -2.7709999999999999e+00 0 0 0
43 43 8 0.0000000000000000e+00 -5.0449999999999999e+00 5.4119999999999999e+00 -7.4809999999999999e+00 0 0 0
44 44 8 0.0000000000000000e+00 -3.6050000000000000e+00 7.9119999999999999e+00 -7.4809999999999999e+00 0 0 0
45 45 8 0.0000000000000000e+00 -5.0449999999999999e+00 7.0720000000000001e+00 -5.1310000000000002e+00 0 0 0
46 46 8 0.0000000000000000e+00 -3.6050000000000000e+00 9.5719999999999992e+00 -5.1310000000000002e+00 0 0 0
47 47 8 0.0000000000000000e+00 -3.6050000000000000e+00 6.2420000000000000e+00 -2.7709999999999999e+00 0 0 0
48 48 8 0.0000000000000000e+00 -5.0449999999999999e+00 8.7420000000000009e+00 -2.7709999999999999e+00 0 0 0
49 49 8 0.0000000000000000e+00 -2.1619999999999999e+00 -9.5719999999999992e+00 -7.4809999999999999e+00 0 0 0
50 50 8 0.0000000000000000e+00 -7.2199999999999998e-01 -7.0720000000000001e+00 -7.4809999999999999e+00 0 0 0
51 51 8 0.0000000000000000e+00 -2.1619999999999999e+00 -7.9119999999999999e+00 -5.1310000000000002e+00 0 0 0
52 52 8 0.0000000000000000e+00 -7.2199999999999998e-01 -5.4119999999999999e+00 -5.1310000000000002e+00 0 0 0
53 53 8 0.0000000000000000e+00 -7.2199999999999998e-01 -8.7420000000000009e+00 -2.7709999999999999e+00 0 0 0
54 54 8 0.0000000000000000e+00 -2.1619999999999999e+00 -6.2420000000000000e+00 -2.7709999999999999e+00 0 0 0
55 55 8 0.0000000000000000e+00 -2.1619999999999999e+00 -4.5770000000000000e+00 -7.4809999999999999e+00 0 0 0
56 56 8 0.0000000000000000e+00 -7.2199999999999998e-01 -2.0770000000000000e+00 -7.4809999999999999e+00 0 0 0
57 57 8 0.0000000000000000e+00 -2.1619999999999999e+00 -2.9169999999999998e+00 -5.1310000000000002e+00 0 0 0
58 58 8 0.0000000000000000e+00 -7.2199999999999998e-01 -4.1699999999999998e-01 -5.1310000000000002e+00 0 0 0
59 59 8 0.0000000000000000e+00 -7.2199999999999998e-01 -3.7469999999999999e+00 -2.7709999999999999e+00 0 0 0
60 60 8 0.0000000000000000e+00 -2.1619999999999999e+00 -1.2470000000000001e+00 -2.7709999999999999e+00 0 0 0
61 61 8 0.0000000000000000e+00 -2.1619999999999999e+00 4.1799999999999998e-01 -7.4809999999999999e+00 0 0 0
62 62 8 0.0000000000000000e+00 -7.2199999999999998e-01 2.9180000000000001e+00 -7.4809999999999999e+00 0 0 0
63 63 8 0.0000000000000000e+00 -2.1619999999999999e+00 2.0779999999999998e+00 -5.1310000000000002e+00 0 0 0
64 64 8 0.0000000000000000e+00 -7.2199999999999998e-01 4.5780000000000003e+00 -5.1310000000000002e+00 0 0 0
65 65 8 0.0000000000000000e+00 -7.2199999999999998e-01 1.2480000000000000e+00 -2.7709999999999999e+00 0 0 0
66 66 8 0.0000000000000000e+00 -2.1619999999999999e+00 3.7480000000000002e+00 -2.7709999999999999e+00 0 0 0
67 67 8 0.0000000000000000e+00 -2.1619999999999999e+00 5.4119999999999999e+00 -7.4809999999999999e+00 0 0 0
68 68 8 0.0000000000000000e+00 -7.2199999999999998e-01 7.9119999999999999e+00 -7.4809999999999999e+00 0 0 0
69 69 8 0.0000000000000000e+00 -2.1619999999999999e+00 7.0720000000000001e+00 -5.1310000000000002e+00 0 0 0
70 70 8 0.0000000000000000e+00 -7.2199999999999998e-01 9.5719999999999992e+00 -5.1310000000000002e+00 0 0 0
71 71 8 0.0000000000000000e+00 -7.2199999999999998e-01 6.2420000000000000e+00 -2.7709999999999999e+00 0 0 0
72 72 8 0.0000000000000000e+00 -2.1619999999999999e+00 8.7420000000000009e+00 -2.7709999999999999e+00 0 0 0
73 73 8 0.0000000000000000e+00 7.2199999999999998e-01 -9.5719999999999992e+00 -7.4809999999999999e+00 0 0 0
74 74 8 0.0000000000000000e+00 2.1619999999999999e+00 -7.0720000000000001e+00 -7.4809999999999999e+00 0 0 0
75 75 8 0.0000000000000000e+00 7.2199999999999998e-01 -7.9119999999999999e+00 -5.1310000000000002e+00 0 0 0
76 76 8 0.0000000000000000e+00 2.1619999999999999e+00 -5.4119999999999999e+00 -5.1310000000000002e+00 0 0 0
77 77 8 0.0000000000000000e+00 2.1619999999999999e+00 -8.7420000000000009e+00 -2.7709999999999999e+00 0 0 0
78 78 8 0.0000000000000000e+00 7.2199999999999998e-01 -6.2420000000000000e+00 -2.7709999999999999e+00 0 0 0
79 79 8 0.0000000000000000e+00 7.2199999999999998e-01 -4.5770000000000000e+00 -7.4809999999999999e+00 0 0 0
80 80 8 0.0000000000000000e+00 2.1619999999999999e+00 -2.0770000000000000e+00 -7.4809999999999999e+00 0 0 0
81 81 8 0.0000000000000000e+00 7.2199999999999998e-01 -2.9169999999999998e+00 -5.1310000000000002e+00 0 0 0
82 82 8 0.0000000000000000e+00 2.1619999999999999e+00 -4.1699999999999998e-01 -5.1310000000000002e+00 0 0 0
83 83 8 0.0000000000000000e+00 2.1619999999999999e+00 -3.7469999999999999e+00 -2.7709999999999999e+00 0 0 0
84 84 8 0.0000000000000000e+00 7.2199999999999998e-01 -1.2470000000000001e+00 -2.7709999999999999e+00 0 0 0
85 85 8 0.0000000000000000e+00 7.2199999999999998e-01 4.1799999999999998e-01 -7.4809999999999999e+00 0 0 0
86 86 8 0.0000000000000000e+00 2.1619999999999999e+00 2.9180000000000001e+00 -7.4809999999999999e+00 0 0 0
87 87 8 0.0000000000000000e+00 7.2199999999999998e-01 2.0779999999999998e+00 -5.1310000000000002e+00 0 0 0
88 88 8 0.0000000000000000e+00 2.1619999999999999e+00 4.5780000000000003e+00 -5.1310000000000002e+00 0 0 0
89 89 8 0.0000000000000000e+00 2.1619999999999999e+00 1.2480000000000000e+00 -2.7709999999999999e+00 0 0 0
90 90 8 0.0000000000000000e+00 7.2199999999999998e-01 3.7480000000000002e+00 -2.7709999999999999e+00 0 0 0
91 91 8 0.0000000000000000e+00 7.2199999999999998e-01 5.4119999999999999e+00 -7.4809999999999999e+00 0 0 0
92 92 8 0.0000000000000000e+00 2.1619999999999999e+00 7.9119999999999999e+00 -7.4809999999999999e+00 0 0 0
93 93 8 0.0000000000000000e+00 7.2199999999999998e-01 7.0720000000000001e+00 -5.1310000000000002e+00 0 0 0
94 94 8 0.0000000000000000e+00 2.1619999999999999e+00 9.5719999999999992e+00 -5.1310000000000002e+00 0 0 0
95 95 8 0.0000000000000000e+00 2.1619999999999999e+00 6.2420000000000000e+00 -2.7709999999999999e+00 0 0 0
96 96 8 0.0000000000000000e+00 7.2199999999999998e-01 8.7420000000000009e+00 -2.7709999999999999e+00 0 0 0
97 97 8 0.0000000000000000e+00 3.6059999999999999e+00 -9.5719999999999992e+00 -7.4809999999999999e+00 0 0 0
98 98 8 0.0000000000000000e+00 5.0460000000000003e+00 -7.0720000000000001e+00 -7.4809999999999999e+00 0 0 0
99 99 8 0.0000000000000000e+00 3.6059999999999999e+00 -7.9119999999999999e+00 -5.1310000000000002e+00 0 0 0
100 100 8 0.0000000000000000e+00 5.0460000000000003e+00 -5.4119999999999999e+00 -5.1310000000000002e+00 0 0 0
101 101 8 0.0000000000000000e+00 5.0460000000000003e+00 -8.7420000000000009e+00 -2.7709999999999999e+00 0 0 0
102 102 8 0.0000000000000000e+00 3.6059999999999999e+00 -6.2420000000000000e+00 -2.7709999999999999e+00 0 0 0
103 103 8 0.0000000000000000e+00 3.6059999999999999e+00 -4.5770000000000000e+00 -7.4809999999999999e+00 0 0 0
104 104 8 0.0000000000000000e+00 5.0460000000000003e+00 -2.0770000000000000e+00 -7.4809999999999999e+00 0 0 0
105 105 8 0.0000000000000000e+00 3.6059999999999999e+00 -2.9169999999999998e+00 -5.1310000000000002e+00 0 0 0
106 106 8 0.0000000000000000e+00 5.0460000000000003e+00 -4.1699999999999998e-01 -5.1310000000000002e+00 0 0 0
107 107 8 0.0000000000000000e+00 5.0460000000000003e+00 -3.7469999999999999e+00 -2.7709999999999999e+00 0 0 0
108 108 8 0.0000000000000000e+00 3.6059999999999999e+00 -1.2470000000000001e+00 -2.7709999999999999e+00 0 0 0
109 109 8 0.0000000000000000e+00 3.6059999999999999e+00 4.1799999999999998e-01 -7.4809999999999999e+00 0 0 0
110 110 8 0.0000000000000000e+00 5.0460000000000003e+00 2.9180000000000001e+00 -7.4809999999999999e+00 0 0 0
111 111 8 0.0000000000000000e+00 3.6059999999999999e+00 2.0779999999999998e+00 -5.1310000000000002e+00 0 0 0
112 112 8 0.0000000000000000e+00 5.0460000000000003e+00 4.5780000000000003e+00 -5.1310000000000002e+00 0 0 0
113 113 8 0.0000000000000000e+00 5.0460000000000003e+00 1.2480000000000000e+00 -2.7709999999999999e+00 0 0 0
114 114 8 0.0000000000000000e+00 3.6059999999999999e+00 3.7480000000000002e+00 -2.7709999999999999e+00 0 0 0
115 115 8 0.0000000000000000e+00 3.6059999999999999e+00 5.4119999999999999e+00 -7.4809999999999999e+00 0 0 0
116 116 8 0.0000000000000000e+00 5.0460000000000003e+00 7.9119999999999999e+00 -7.4809999999999999e+00 0 0 0
117 117 8 0.0000000000000000e+00 3.6059999999999999e+00 7.0720000000000001e+00 -5.1310000000000002e+00 0 0 0
118 118 8 0.0000000000000000e+00 5.0460000000000003e+00 9.5719999999999992e+00 -5.1310000000000002e+00 0 0 0
119 119 8 0.0000000000000000e+00 5.0460000000000003e+00 6.2420000000000000e+00 -2.7709999999999999e+00 0 0 0
120 120 8 0.0000000000000000e+00 3.6059999999999999e+00 8.7420000000000009e+00 -2.7709999999999999e+00 0 0 0
121 121 8 0.0000000000000000e+00 6.4900000000000002e+00 -9.5719999999999992e+00 -7.4809999999999999e+00 0 0 0
122 122 8 0.0000000000000000e+00 7.9290000000000003e+00 -7.0720000000000001e+00 -7.4809999999999999e+00 0 0 0
123 123 8 0.0000000000000000e+00 6.4900000000000002e+00 -7.9119999999999999e+00 -5.1310000000000002e+00 0 0 0
124 124 8 0.0000000000000000e+00 7.9290000000000003e+00 -5.4119999999999999e+00 -5.1310000000000002e+00 0 0 0
125 125 8 0.0000000000000000e+00 7.9290000000000003e+00 -8.7420000000000009e+00 -2.7709999999999999e+00 0 0 0
126 126 8 0.0000000000000000e+00 6.4900000000000002e+00 -6.2420000000000000e+00 -2.7709999999999999e+00 0 0 0
127 127 8 0.0000000000000000e+00 6.4900000000000002e+00 -4.5770000000000000e+00 -7.4809999999999999e+00 0 0 0
128 128 8 0.0000000000000000e+00 7.9290000000000003e+00 -2.0770000000000000e+00 -7.4809999999999999e+00 0 0 0
129 129 8 0.0000000000000000e+00 6.4900000000000002e+00 -2.9169999999999998e+00 -5.1310000000000002e+00 0 0 0
130 130 8 0.0000000000000000e+00 7.9290000000000003e+00 -4.1699999999999998e-01 -5.1310000000000002e+00 0 0 0
131 131 8 0.0000000000000000e+00 7.9290000000000003e+00 -3.7469999999999999e+00 -2.7709999999999999e+00 0 0 0
132 132 8 0.0000000000000000e+00 6.4900000000000002e+00 -1.2470000000000001e+00 -2.7709999999999999e+00 0 0 0
133 133 8 0.0000000000000000e+00 6.4900000000000002e+00 4.1799999999999998e-01 -7.4809999999999999e+00 0 0 0
134 134 8 0.0000000000000000e+00 7.9290000000000003e+00 2.9180000000000001e+00 -7.4809999999999999e+00 0 0 0
135 135 8 0.0000000000000000e+00 6.4900000000000002e+00 2.0779999999999998e+00 -5.1310000000000002e+00 0 0 0
136 136 8 0.0000000000000000e+00 7.9290000000000003e+00 4.5780000000000003e+00 -5.1310000000000002e+00 0 0 0
137 137 8 0.0000000000000000e+00 7.9290000000000003e+00 1.2480000000000000e+00 -2.7709999999999999e+00 0 0 0
138 138 8 0.0000000000000000e+00 6.4900000000000002e+00 3.7480000000000002e+00 -2.7709999999999999e+00 0 0 0
139 139 8 0.0000000000000000e+00 6.4900000000000002e+00 5.4119999999999999e+00 -7.4809999999999999e+00 0 0 0
140 140 8 0.0000000000000000e+00 7.9290000000000003e+00 7.9119999999999999e+00 -7.4809999999999999e+00 0 0 0
141 141 8 0.0000000000000000e+00 6.4900000000000002e+00 7.0720000000000001e+00 -5.1310000000000002e+00 0 0 0
142 142 8 0.0000000000000000e+00 7.9290000000000003e+00 9.5719999999999992e+00 -5.1310000000000002e+00 0 0 0
143 143 8 0.0000000000000000e+00 7.9290000000000003e+00 6.2420000000000000e+00 -2.7709999999999999e+00 0 0 0
144 144 8 0.0000000000000000e+00 6.4900000000000002e+00 8.7420000000000009e+00 -2.7709999999999999e+00 0 0 0
145 145 7 1.3300000000000001e+00 -3.6709999999999998e+00 4.4720000000000004e+00 6.3259999999999996e+00 0 0 0
146 145 5 -2.8000000000000003e-01 -2.7949999999999999e+00 3.2320000000000002e+00 5.7160000000000002e+00 0 0 0
147 145 6 -6.5000000000000002e-01 -4.9260000000000002e+00 3.8319999999999999e+00 6.6170000000000000e+00 0 0 0
148 145 6 -6.5000000000000002e-01 -3.7029999999999998e+00 5.4480000000000004e+00 5.2530000000000001e+00 0 0 0
149 145 6 -6.5000000000000002e-01 -2.9119999999999999e+00 4.9070000000000000e+00 7.4809999999999999e+00 0 0 0
150 145 3 -2.8000000000000003e-01 -1.4700000000000000e+00 3.5169999999999999e+00 5.3390000000000004e+00 0 0 0
151 145 1 8.9999999999999997e-02 -9.7099999999999997e-01 3.7959999999999998e+00 6.1589999999999998e+00 0 0 0
152 145 1 8.9999999999999997e-02 -1.4910000000000001e+00 4.2740000000000000e+00 4.6900000000000004e+00 0 0 0
153 145 3 -1.7999999999999999e-01 -8.7200000000000000e-01 2.2639999999999998e+00 4.7149999999999999e+00 0 0 0
154 145 1 8.9999999999999997e-02 -9.3600000000000005e-01 1.5180000000000000e+00 5.3830000000000000e+00 0 0 0
155 145 1 8.9999999999999997e-02 8.2000000000000003e-02 2.4359999999999999e+00 4.5019999999999998e+00 0 0 0
156 145 3 -1.7999999999999999e-01 -1.5900000000000001e+00 1.8290000000000000e+00 3.4430000000000001e+00 0 0 0
157 145 1 8.9999999999999997e-02 -1.5780000000000001e+00 2.5930000000000000e+00 2.7959999999999998e+00 0 0 0
158 145 1 8.9999999999999997e-02 -2.5400000000000000e+00 1.6010000000000000e+00 3.6699999999999999e+00 0 0 0
159 145 3 -1.7999999999999999e-01 -9.6399999999999997e-01 6.0899999999999999e-01 2.7400000000000002e+00 0 0 0
160 145 1 8.9999999999999997e-02 7.0000000000000001e-03 8.0500000000000005e-01 2.5830000000000002e+00 0 0 0
161 145 1 8.9999999999999997e-02 -1.4250000000000000e+00 4.8099999999999998e-01 1.8590000000000000e+00 0 0 0
162 145 3 -1.7999999999999999e-01 -1.0649999999999999e+00 -6.9399999999999995e-01 3.5310000000000001e+00 0 0 0
163 145 1 8.9999999999999997e-02 -2.0160000000000000e+00 -8.0600000000000005e-01 3.8170000000000002e+00 0 0 0
164 145 1 8.9999999999999997e-02 -4.8299999999999998e-01 -6.2300000000000000e-01 4.3380000000000001e+00 0 0 0
165 145 3 -1.7999999999999999e-01 -6.5100000000000002e-01 -1.9430000000000001e+00 2.7500000000000000e+00 0 0 0
166 145 1 8.9999999999999997e-02 -1.1850000000000001e+00 -1.9930000000000001e+00 1.9099999999999999e+00 0 0 0
167 145 1 8.9999999999999997e-02 -8.5499999999999998e-01 -2.7490000000000001e+00 3.3149999999999999e+00 0 0 0
168 145 3 -1.7999999999999999e-01 8.3299999999999996e-01 -2.0040000000000000e+00 2.3679999999999999e+00 0 0 0
169 145 1 8.9999999999999997e-02 1.3770000000000000e+00 -1.9010000000000000e+00 3.2100000000000000e+00 0 0 0
170 145 1 8.9999999999999997e-02 1.0349999999999999e+00 -1.2450000000000001e+00 1.7490000000000001e+00 0 0 0
171 145 3 -1.7999999999999999e-01 1.2260000000000000e+00 -3.3140000000000001e+00 1.6830000000000001e+00 0 0 0
172 145 1 8.9999999999999997e-02 6.7500000000000004e-01 -3.4089999999999998e+00 8.6099999999999999e-01 0 0 0
173 145 1 8.9999999999999997e-02 1.0349999999999999e+00 -4.0720000000000001e+00 2.3100000000000001e+00 0 0 0
174 145 3 -1.7999999999999999e-01 2.7060000000000000e+00 -3.3700000000000001e+00 1.2929999999999999e+00 0 0 0
175 145 1 8.9999999999999997e-02 3.2599999999999998e+00 -3.2620000000000000e+00 2.1219999999999999e+00 0 0 0
176 145 1 8.9999999999999997e-02 2.9020000000000001e+00 -2.6179999999999999e+00 6.6000000000000003e-01 0 0 0
177 145 3 -1.7999999999999999e-01 3.0950000000000002e+00 -4.6909999999999998e+00 6.1699999999999999e-01 0 0 0
178 145 1 8.9999999999999997e-02 2.4920000000000000e+00 -4.8179999999999996e+00 -1.6600000000000001e-01 0 0 0
179 145 1 8.9999999999999997e-02 2.9569999999999999e+00 -5.4219999999999997e+00 1.2749999999999999e+00 0 0 0
180 145 3 -1.7999999999999999e-01 4.5449999999999999e+00 -4.7519999999999998e+00 1.2400000000000000e-01 0 0 0
181 145 1 8.9999999999999997e-02 4.7080000000000002e+00 -3.9740000000000002e+00 -4.7899999999999998e-01 0 0 0
182 145 1 8.9999999999999997e-02 4.6600000000000001e+00 -5.5979999999999999e+00 -3.9400000000000002e-01 0 0 0
183 145 4 -2.7000000000000002e-01 5.5899999999999999e+00 -4.7279999999999998e+00 1.2290000000000001e+00 0 0 0
184 145 2 8.9999999999999997e-02 5.6920000000000002e+00 -4.6760000000000002e+00 2.2280000000000002e+00 0 0 0
185 145 2 8.9999999999999997e-02 6.0090000000000003e+00 -5.5720000000000001e+00 8.9400000000000002e-01 0 0 0
186 145 2 8.9999999999999997e-02 6.0529999999999999e+00 -3.9420000000000002e+00 8.1499999999999995e-01 0 0 0
187 291 10 -8.3399999999999996e-01 -8.6298565691300002e+00 -8.6298565691300002e+00 -1.1095529874600000e+01 0 0 0
188 291 9 4.1699999999999998e-01 -7.8729062418600000e+00 -8.0439742925100006e+00 -1.1095529874600000e+01 0 0 0
189 291 9 4.1699999999999998e-01 -9.3868068963900004e+00 -8.0439742925100006e+00 -1.1095529874600000e+01 0 0 0
190 292 10 -8.3399999999999996e-01 -6.1641832636600000e+00 -6.1641832636600000e+00 -1.1095529874600000e+01 0 0 0
191 292 9 4.1699999999999998e-01 -5.4072329363999998e+00 -5.5783009870400004e+00 -1.1095529874600000e+01 0 0 0
192 292 9 4.1699999999999998e-01 -6.9211335909300002e+00 -5.5783009870400004e+00 -1.1095529874600000e+01 0 0 0
193 293 10 -8.3399999999999996e-01 -6.1641832636600000e+00 -8.6298565691300002e+00 1.2328366527300001e+00 0 0 0
194 293 9 4.1699999999999998e-01 -5.4072329363999998e+00 -8.0439742925100006e+00 1.2328366527300001e+00 0 0 0
195 293 9 4.1699999999999998e-01 -6.9211335909300002e+00 -8.0439742925100006e+00 1.2328366527300001e+00 0 0 0
196 294 10 -8.3399999999999996e-01 -8.6298565691300002e+00 -6.1641832636600000e+00 1.2328366527300001e+00 0 0 0
197 294 9 4.1699999999999998e-01 -7.8729062418600000e+00 -5.5783009870400004e+00 1.2328366527300001e+00 0 0 0
198 294 9 4.1699999999999998e-01 -9.3868068963900004e+00 -5.5783009870400004e+00 1.2328366527300001e+00 0 0 0
199 295 10 -8.3399999999999996e-01 -8.6298565691300002e+00 -8.6298565691300002e+00 3.6985099581999998e+00 0 0 0
200 295 9 4.1699999999999998e-01 -7.8729062418600000e+00 -8.0439742925100006e+00 3.6985099581999998e+00 0 0 0
201 295 9 4.1699999999999998e-01 -9.3868068963900004e+00 -8.0439742925100006e+00 3.6985099581999998e+00 0 0 0
202 296 10 -8.3399999999999996e-01 -6.1641832636600000e+00 -6.1641832636600000e+00 3.6985099581999998e+00 0 0 0
203 296 9 4.1699999999999998e-01 -5.4072329363999998e+00 -5.5783009870400004e+00 3.6985099581999998e+00 0 0 0
204 296 9 4.1699999999999998e-01 -6.9211335909300002e+00 -5.5783009870400004e+00 3.6985099581999998e+00 0 0 0
205 297 10 -8.3399999999999996e-01 -6.1641832636600000e+00 -8.6298565691300002e+00 6.1641832636600000e+00 0 0 0
206 297 9 4.1699999999999998e-01 -5.4072329363999998e+00 -8.0439742925100006e+00 6.1641832636600000e+00 0 0 0
207 297 9 4.1699999999999998e-01 -6.9211335909300002e+00 -8.0439742925100006e+00 6.1641832636600000e+00 0 0 0
208 298 10 -8.3399999999999996e-01 -8.6298565691300002e+00 -6.1641832636600000e+00 6.1641832636600000e+00 0 0 0
209 298 9 4.1699999999999998e-01 -7.8729062418600000e+00 -5.5783009870400004e+00 6.1641832636600000e+00 0 0 0
210 298 9 4.1699999999999998e-01 -9.3868068963900004e+00 -5.5783009870400004e+00 6.1641832636600000e+00 0 0 0
211 299 10 -8.3399999999999996e-01 -8.6298565691300002e+00 -8.6298565691300002e+00 8.6298565691300002e+00 0 0 0
212 299 9 4.1699999999999998e-01 -7.8729062418600000e+00 -8.0439742925100006e+00 8.6298565691300002e+00 0 0 0
213 299 9 4.1699999999999998e-01 -9.3868068963900004e+00 -8.0439742925100006e+00 8.6298565691300002e+00 0 0 0
214 300 10 -8.3399999999999996e-01 -6.1641832636600000e+00 -6.1641832636600000e+00 8.6298565691300002e+00 0 0 0
215 300 9 4.1699999999999998e-01 -5.4072329363999998e+00 -5.5783009870400004e+00 8.6298565691300002e+00 0 0 0
216 300 9 4.1699999999999998e-01 -6.9211335909300002e+00 -5.5783009870400004e+00 8.6298565691300002e+00 0 0 0
217 301 10 -8.3399999999999996e-01 -6.1641832636600000e+00 -8.6298565691300002e+00 1.1095529874600000e+01 0 0 0
218 301 9 4.1699999999999998e-01 -5.4072329363999998e+00 -8.0439742925100006e+00 1.1095529874600000e+01 0 0 0
219 301 9 4.1699999999999998e-01 -6.9211335909300002e+00 -8.0439742925100006e+00 1.1095529874600000e+01 0 0 0
220 302 10 -8.3399999999999996e-01 -8.6298565691300002e+00 -6.1641832636600000e+00 1.1095529874600000e+01 0 0 0
221 302 9 4.1699999999999998e-01 -7.8729062418600000e+00 -5.5783009870400004e+00 1.1095529874600000e+01 0 0 0
222 302 9 4.1699999999999998e-01 -9.3868068963900004e+00 -5.5783009870400004e+00 1.1095529874600000e+01 0 0 0
223 303 10 -8.3399999999999996e-01 -8.6298565691300002e+00 -3.6985099581999998e+00 -1.1095529874600000e+01 0 0 0
224 303 9 4.1699999999999998e-01 -7.8729062418600000e+00 -3.1126276815799998e+00 -1.1095529874600000e+01 0 0 0
225 303 9 4.1699999999999998e-01 -9.3868068963900004e+00 -3.1126276815799998e+00 -1.1095529874600000e+01 0 0 0
226 304 10 -8.3399999999999996e-01 -6.1641832636600000e+00 -1.2328366527300001e+00 -1.1095529874600000e+01 0 0 0
227 304 9 4.1699999999999998e-01 -5.4072329363999998e+00 -6.4695437611399997e-01 -1.1095529874600000e+01 0 0 0
228 304 9 4.1699999999999998e-01 -6.9211335909300002e+00 -6.4695437611399997e-01 -1.1095529874600000e+01 0 0 0
229 305 10 -8.3399999999999996e-01 -6.1641832636600000e+00 -3.6985099581999998e+00 1.2328366527300001e+00 0 0 0
230 305 9 4.1699999999999998e-01 -5.4072329363999998e+00 -3.1126276815799998e+00 1.2328366527300001e+00 0 0 0
231 305 9 4.1699999999999998e-01 -6.9211335909300002e+00 -3.1126276815799998e+00 1.2328366527300001e+00 0 0 0
232 306 10 -8.3399999999999996e-01 -8.6298565691300002e+00 -1.2328366527300001e+00 1.2328366527300001e+00 0 0 0
233 306 9 4.1699999999999998e-01 -7.8729062418600000e+00 -6.4695437611399997e-01 1.2328366527300001e+00 0 0 0
234 306 9 4.1699999999999998e-01 -9.3868068963900004e+00 -6.4695437611399997e-01 1.2328366527300001e+00 0 0 0
235 307 10 -8.3399999999999996e-01 -8.6298565691300002e+00 -3.6985099581999998e+00 3.6985099581999998e+00 0 0 0
236 307 9 4.1699999999999998e-01 -7.8729062418600000e+00 -3.1126276815799998e+00 3.6985099581999998e+00 0 0 0
237 307 9 4.1699999999999998e-01 -9.3868068963900004e+00 -3.1126276815799998e+00 3.6985099581999998e+00 0 0 0
238 308 10 -8.3399999999999996e-01 -6.1641832636600000e+00 -1.2328366527300001e+00 3.6985099581999998e+00 0 0 0
239 308 9 4.1699999999999998e-01 -5.4072329363999998e+00 -6.4695437611399997e-01 3.6985099581999998e+00 0 0 0
240 308 9 4.1699999999999998e-01 -6.9211335909300002e+00 -6.4695437611399997e-01 3.6985099581999998e+00 0 0 0
241 309 10 -8.3399999999999996e-01 -6.1641832636600000e+00 -3.6985099581999998e+00 6.1641832636600000e+00 0 0 0
242 309 9 4.1699999999999998e-01 -5.4072329363999998e+00 -3.1126276815799998e+00 6.1641832636600000e+00 0 0 0
243 309 9 4.1699999999999998e-01 -6.9211335909300002e+00 -3.1126276815799998e+00 6.1641832636600000e+00 0 0 0
244 310 10 -8.3399999999999996e-01 -8.6298565691300002e+00 -1.2328366527300001e+00 6.1641832636600000e+00 0 0 0
245 310 9 4.1699999999999998e-01 -7.8729062418600000e+00 -6.4695437611399997e-01 6.1641832636600000e+00 0 0 0
246 310 9 4.1699999999999998e-01 -9.3868068963900004e+00 -6.4695437611399997e-01 6.1641832636600000e+00 0 0 0
247 311 10 -8.3399999999999996e-01 -8.6298565691300002e+00 -3.6985099581999998e+00 8.6298565691300002e+00 0 0 0
248 311 9 4.1699999999999998e-01 -7.8729062418600000e+00 -3.1126276815799998e+00 8.6298565691300002e+00 0 0 0
249 311 9 4.1699999999999998e-01 -9.3868068963900004e+00 -3.1126276815799998e+00 8.6298565691300002e+00 0 0 0
250 312 10 -8.3399999999999996e-01 -6.1641832636600000e+00 -1.2328366527300001e+00 8.6298565691300002e+00 0 0 0
251 312 9 4.1699999999999998e-01 -5.4072329363999998e+00 -6.4695437611399997e-01 8.6298565691300002e+00 0 0 0
252 312 9 4.1699999999999998e-01 -6.9211335909300002e+00 -6.4695437611399997e-01 8.6298565691300002e+00 0 0 0
253 313 10 -8.3399999999999996e-01 -6.1641832636600000e+00 -3.6985099581999998e+00 1.1095529874600000e+01 0 0 0
254 313 9 4.1699999999999998e-01 -5.4072329363999998e+00 -3.1126276815799998e+00 1.1095529874600000e+01 0 0 0
255 313 9 4.1699999999999998e-01 -6.9211335909300002e+00 -3.1126276815799998e+00 1.1095529874600000e+01 0 0 0
256 314 10 -8.3399999999999996e-01 -8.6298565691300002e+00 -1.2328366527300001e+00 1.1095529874600000e+01 0 0 0
257 314 9 4.1699999999999998e-01 -7.8729062418600000e+00 -6.4695437611399997e-01 1.1095529874600000e+01 0 0 0
258 314 9 4.1699999999999998e-01 -9.3868068963900004e+00 -6.4695437611399997e-01 1.1095529874600000e+01 0 0 0
259 315 10 -8.3399999999999996e-01 -8.6298565691300002e+00 1.2328366527300001e+00 -1.1095529874600000e+01 0 0 0
260 315 9 4.1699999999999998e-01 -7.8729062418600000e+00 1.8187189293499999e+00 -1.1095529874600000e+01 0 0 0
261 315 9 4.1699999999999998e-01 -9.3868068963900004e+00 1.8187189293499999e+00 -1.1095529874600000e+01 0 0 0
262 316 10 -8.3399999999999996e-01 -6.1641832636600000e+00 3.6985099581999998e+00 -1.1095529874600000e+01 0 0 0
263 316 9 4.1699999999999998e-01 -5.4072329363999998e+00 4.2843922348200003e+00 -1.1095529874600000e+01 0 0 0
264 316 9 4.1699999999999998e-01 -6.9211335909300002e+00 4.2843922348200003e+00 -1.1095529874600000e+01 0 0 0
265 317 10 -8.3399999999999996e-01 -6.1641832636600000e+00 1.2328366527300001e+00 1.2328366527300001e+00 0 0 0
266 317 9 4.1699999999999998e-01 -5.4072329363999998e+00 1.8187189293499999e+00 1.2328366527300001e+00 0 0 0
267 317 9 4.1699999999999998e-01 -6.9211335909300002e+00 1.8187189293499999e+00 1.2328366527300001e+00 0 0 0
268 318 10 -8.3399999999999996e-01 -8.6298565691300002e+00 3.6985099581999998e+00 1.2328366527300001e+00 0 0 0
269 318 9 4.1699999999999998e-01 -7.8729062418600000e+00 4.2843922348200003e+00 1.2328366527300001e+00 0 0 0