LAMMPS data file via write_data, version 7 Aug 2019, timestep = 503

676 atoms
12 atom types
367 bonds
8 bond types
242 angles
13 angle types
132 dihedrals
18 dihedral types

-9.9000000000000000e+01 9.9000000000000000e+01 xlo xhi
-9.9000000000000000e+01 9.9000000000000000e+01 ylo yhi
-9.9000000000000000e+01 9.9000000000000000e+01 zlo zhi

Masses

1 1.008
2 1.008
3 12.011
4 12.011
5 15.9994
6 15.9994
7 32.06
8 196.966
9 1.008
10 15.9994
11 35.45
12 22.9898

Pair Coeffs # lj/charmmfsw/coul/charmmfsh/bsct

1 0.028 2.38761 0.028 2.38761
2 0.024 2.38761 0.024 2.38761
3 0.056 3.58141 0.01 3.38542
4 0.078 3.63487 0.01 3.38542
5 0.1 2.93997 0.1 2.93997
6 0.12 3.02906 0.12 3.02906
7 0.47 3.74177 0.47 3.74177
8 5.29 2.62904 5.29 2.62904
9 0.046 0.400014 0.046 0.400014
10 0.1521 3.15057 0.1521 3.15057
11 0.15 4.04468 0.15 4.04468
12 0.0469 2.42993 0.0469 2.42993

Bond Coeffs # harmonic

1 222.5 1.53
2 222.5 1.528
3 309 1.111
4 340 1.43
5 322 1.111
6 450 0.9572
7 540 1.448
8 250 1.575

Angle Coeffs # charmm

1 58.35 113.6 11.16 2.561
2 58 115 8 2.561
3 26.5 110.1 22.53 2.179
4 75.7 110.1 0 0
5 34.6 110.1 22.53 2.179
6 15 109 27 1.9
7 34.6 110.1 22.53 2.179
8 35.5 109 5.4 1.802
9 60 109.5 0 0
10 35.5 108.4 5.4 1.802
11 55 104.52 0 0
12 130 109.47 35 2.45
13 85 98 0 0

Dihedral Coeffs # charmmfsw

1 0.101 2 0 1
2 0.142 3 180 0
3 0.074 4 0 0
4 0.097 5 0 0
5 0.162 2 0 1
6 0.047 3 180 0
7 0.105 4 0 0
8 0.177 5 0 0
9 0.19 3 0 1
10 0 3 0 1
11 0.16 3 0 1
12 0 3 0 1
13 0 3 0 1
14 0.19 3 0 1
15 0.19 3 0 1
16 0.19 3 0 1
17 0.16 3 0 1
18 0 3 0 1

Atoms # full

1 1 8 0.0000000000000000e+00 -8.2184551343405357e+00 -9.3251903388130888e+00 -6.6300126303532938e+00 0 0 0
3 3 8 0.0000000000000000e+00 -8.2593465603848752e+00 -7.5080137056231333e+00 -4.3696493795904354e+00 0 0 0
187 291 10 -8.3399999999999996e-01 -4.1775807126556863e+00 -8.4781987310010418e+00 -9.2078097451069585e+00 0 0 0
188 291 9 4.1699999999999998e-01 -4.2059963219230569e+00 -7.4971267955115772e+00 -9.2650831301380627e+00 0 0 0
189 291 9 4.1699999999999998e-01 -5.0892687086522441e+00 -8.7136742321833545e+00 -9.3816823278430359e+00 0 0 0
2 2 8 0.0000000000000000e+00 -6.6774111518265213e+00 -6.8409322395015462e+00 -6.7078197193599198e+00 0 0 0
25 25 8 0.0000000000000000e+00 -5.3206616154404687e+00 -9.4279383397096446e+00 -6.4348401800025323e+00 0 0 0
26 26 8 0.0000000000000000e+00 -3.8089426828743020e+00 -6.8836359897047998e+00 -6.5616943068154141e+00 0 0 0
27 27 8 0.0000000000000000e+00 -5.3337414432648611e+00 -7.6224272875277244e+00 -4.2267915379020344e+00 0 0 0
49 49 8 0.0000000000000000e+00 -2.4395868225022848e+00 -9.4482101711085331e+00 -6.4115808013156705e+00 0 0 0
50 50 8 0.0000000000000000e+00 -9.4947808672819689e-01 -6.9150483855917537e+00 -6.4918769952104549e+00 0 0 0
51 51 8 0.0000000000000000e+00 -2.4309411020688949e+00 -7.6954327239760554e+00 -4.1384047551887813e+00 0 0 0
322 336 10 -8.3399999999999996e-01 -1.4016510261972781e+00 -8.3681609722691785e+00 -9.1839589631157477e+00 0 0 0
323 336 9 4.1699999999999998e-01 -1.4761168904533057e+00 -7.3970169319751129e+00 -9.1917005761562862e+00 0 0 0
324 336 9 4.1699999999999998e-01 -2.3428962157973454e+00 -8.6303019122352094e+00 -9.1728436943359100e+00 0 0 0
7 7 8 0.0000000000000000e+00 -8.1814458930803902e+00 -4.3575991338438795e+00 -6.6425522420534922e+00 0 0 0
9 9 8 0.0000000000000000e+00 -8.1791249837954787e+00 -2.5990668006715820e+00 -4.3050781519986074e+00 0 0 0
223 303 10 -8.3399999999999996e-01 -4.4857804506190471e+00 -3.0661001700705164e+00 -9.2755190322772290e+00 0 0 0
224 303 9 4.1699999999999998e-01 -4.5548730047804931e+00 -2.1081001726530628e+00 -9.5072561904274817e+00 0 0 0
225 303 9 4.1699999999999998e-01 -5.0476272436445146e+00 -3.0878262611930754e+00 -8.4939578491051098e+00 0 0 0
4 4 8 0.0000000000000000e+00 -6.6987583329768352e+00 -5.0962528705960546e+00 -4.2975168262385743e+00 0 0 0
8 8 8 0.0000000000000000e+00 -6.6513316450235944e+00 -1.8707253120945009e+00 -6.6612921761158628e+00 0 0 0
10 10 8 0.0000000000000000e+00 -6.6354847286065963e+00 -1.5912736068316249e-01 -4.2363788322844176e+00 0 0 0
28 28 8 0.0000000000000000e+00 -3.8224109855396899e+00 -5.1647468695180763e+00 -4.2167039615653952e+00 0 0 0
31 31 8 0.0000000000000000e+00 -5.2264785287069904e+00 -4.3596613522630534e+00 -6.6285289958762776e+00 0 0 0
32 32 8 0.0000000000000000e+00 -3.7631940297338220e+00 -1.8710527327172934e+00 -6.5810395223146845e+00 0 0 0
33 33 8 0.0000000000000000e+00 -5.2330495801226276e+00 -2.6493826883362477e+00 -4.2488738381759861e+00 0 0 0
34 34 8 0.0000000000000000e+00 -3.7604833204619621e+00 -1.8462354739315140e-01 -4.2036715826837758e+00 0 0 0
52 52 8 0.0000000000000000e+00 -9.5531494877194234e-01 -5.2055363575569604e+00 -4.1470513500159294e+00 0 0 0
55 55 8 0.0000000000000000e+00 -2.3626238221185072e+00 -4.3844003199397266e+00 -6.5632463016487570e+00 0 0 0
56 56 8 0.0000000000000000e+00 -9.0150315818370852e-01 -1.9047962727008192e+00 -6.5438906536660397e+00 0 0 0
57 57 8 0.0000000000000000e+00 -2.3565996607150295e+00 -2.6923481510201515e+00 -4.1881828947139006e+00 0 0 0
58 58 8 0.0000000000000000e+00 -8.9849852410390973e-01 -2.1426811576703964e-01 -4.1883741714365019e+00 0 0 0
190 292 10 -8.3399999999999996e-01 -4.0493680567417067e+00 -5.7776021218120306e+00 -9.4301547251047584e+00 0 0 0
191 292 9 4.1699999999999998e-01 -3.0737206370591634e+00 -5.7203833895333274e+00 -9.3924447238738846e+00 0 0 0
192 292 9 4.1699999999999998e-01 -4.2871252160941999e+00 -4.8352979651222689e+00 -9.5205517662263830e+00 0 0 0
226 304 10 -8.3399999999999996e-01 -4.6262322826547679e+00 -4.1117420340864413e-01 -9.4115455262826710e+00 0 0 0
384 356 9 4.1699999999999998e-01 -3.0773081618077680e+00 -8.9301213752042952e-01 9.9930890582537657e+00 0 0 0
379 355 10 -8.3399999999999996e-01 -2.8862287448956869e-01 -2.4939856127170943e+00 1.0690541303235717e+01 0 0 0
325 337 10 -8.3399999999999996e-01 -1.3030693443272885e+00 -5.5604522450357674e+00 -9.2426802957239005e+00 0 0 0
326 337 9 4.1699999999999998e-01 -3.2705590596685130e-01 -5.6545868142014371e+00 -9.2248107594160960e+00 0 0 0
327 337 9 4.1699999999999998e-01 -1.3806286462921207e+00 -4.5836359933447852e+00 -9.2456860859740733e+00 0 0 0
358 348 10 -8.3399999999999996e-01 -1.6928701052708548e+00 -2.8433474506786407e+00 -9.3051774738424200e+00 0 0 0
359 348 9 4.1699999999999998e-01 -1.5621848340439528e+00 -1.8661250210829616e+00 -9.3048038135553295e+00 0 0 0
360 348 9 4.1699999999999998e-01 -2.6672860455245058e+00 -2.8939059589519713e+00 -9.3322930582911994e+00 0 0 0
361 349 10 -8.3399999999999996e-01 -1.1990093492571872e+00 -1.6529905615688523e-01 -9.2825476513515284e+00 0 0 0
378 354 9 4.1699999999999998e-01 -1.3615532901469778e+00 -1.4615926257164578e+00 8.1902120942260002e+00 0 0 0
251 312 9 4.1699999999999998e-01 -3.6824454053813116e+00 -1.3254423364259002e-01 6.5884667061802986e+00 0 0 0
199 295 10 -8.3399999999999996e-01 -6.5778062970288769e+00 -1.0476876209871254e+01 4.5508273883638806e+00 0 0 0
200 295 9 4.1699999999999998e-01 -7.0353567250032869e+00 -9.8958378984003073e+00 5.1708656401456707e+00 0 0 0
201 295 9 4.1699999999999998e-01 -5.9238726836320126e+00 -9.8680960732196681e+00 4.1681871094935374e+00 0 0 0
5 5 8 0.0000000000000000e+00 -6.9040037956724536e+00 -8.3590513847038768e+00 -1.9103554634697280e+00 0 0 0
29 29 8 0.0000000000000000e+00 -3.9562592057754715e+00 -8.5024185813331137e+00 -1.8330893303419802e+00 0 0 0
53 53 8 0.0000000000000000e+00 -1.0251657932455711e+00 -8.5325722577866312e+00 -1.7134936362800375e+00 0 0 0
193 293 10 -8.3399999999999996e-01 -5.1825461835324962e+00 -7.4058852276577776e+00 7.0958849061236240e-01 0 0 0
194 293 9 4.1699999999999998e-01 -4.6793811161918653e+00 -6.5742676485253764e+00 6.1831285256140456e-01 0 0 0
195 293 9 4.1699999999999998e-01 -6.0803485703815792e+00 -7.0450136643823624e+00 6.5879661637247433e-01 0 0 0
328 338 10 -8.3399999999999996e-01 -2.4275734545220407e+00 -8.0439759771372046e+00 1.1862639269214275e+00 0 0 0
329 338 9 4.1699999999999998e-01 -3.3954352827288257e+00 -8.1522051809051170e+00 1.1614749983244206e+00 0 0 0
330 338 9 4.1699999999999998e-01 -2.3262828450342035e+00 -7.1110645250253866e+00 9.5090752420526181e-01 0 0 0
334 340 10 -8.3399999999999996e-01 -5.0100197522468708e+00 -8.1869140917744847e+00 4.0688016434888752e+00 0 0 0
335 340 9 4.1699999999999998e-01 -4.0407587037729797e+00 -8.1280844209361511e+00 4.1672135138253861e+00 0 0 0
336 340 9 4.1699999999999998e-01 -5.1647758121620742e+00 -7.3355409452620863e+00 3.6015510511211080e+00 0 0 0
6 6 8 0.0000000000000000e+00 -8.3240115462658757e+00 -5.7911056814612945e+00 -2.0302662361011645e+00 0 0 0
12 12 8 0.0000000000000000e+00 -8.1943052625278092e+00 -8.6968747820979031e-01 -1.9316532191569968e+00 0 0 0
196 294 10 -8.3399999999999996e-01 -6.9249517206826567e+00 -5.1061528573176052e+00 6.3882218453969264e-01 0 0 0
197 294 9 4.1699999999999998e-01 -6.3850458661026526e+00 -4.3114342005446087e+00 4.7985821355283326e-01 0 0 0
198 294 9 4.1699999999999998e-01 -7.4023338311806546e+00 -4.8413203747591931e+00 1.4495707704176259e+00 0 0 0
232 306 10 -8.3399999999999996e-01 -6.5856757488782636e+00 -3.5561300007555241e-01 8.5957599234105253e-01 0 0 0
341 342 9 4.1699999999999998e-01 -9.1475208747229642e-01 -7.7918451535548616e+00 3.5237024778693851e+00 0 0 0
377 354 9 4.1699999999999998e-01 -1.8210178680677150e-01 -9.5997054017474359e-01 7.4059765881743678e+00 0 0 0
235 307 10 -8.3399999999999996e-01 -7.6877107702785672e+00 -4.1933437629227202e+00 3.0635393280007710e+00 0 0 0
236 307 9 4.1699999999999998e-01 -7.6847401836693647e+00 -3.2294157116001014e+00 3.2339855522967924e+00 0 0 0
237 307 9 4.1699999999999998e-01 -7.9261434777572024e+00 -4.5644426103234528e+00 3.9328893451131135e+00 0 0 0
11 11 8 0.0000000000000000e+00 -6.7420675971479866e+00 -3.3844228205399269e+00 -1.9198573588246977e+00 0 0 0
30 30 8 0.0000000000000000e+00 -5.3478488375436175e+00 -5.9163223191354763e+00 -1.8944245129602257e+00 0 0 0
35 35 8 0.0000000000000000e+00 -3.8335683632821316e+00 -3.4743443101927056e+00 -1.8571532556343677e+00 0 0 0
36 36 8 0.0000000000000000e+00 -5.2329730365082145e+00 -9.4801584280436046e-01 -1.8508742827043785e+00 0 0 0
54 54 8 0.0000000000000000e+00 -2.4423684300515109e+00 -6.0058935043875232e+00 -1.7984054401971801e+00 0 0 0
59 59 8 0.0000000000000000e+00 -9.4612905419726356e-01 -3.5267242901344926e+00 -1.7848456403063411e+00 0 0 0
60 60 8 0.0000000000000000e+00 -2.3464417391499808e+00 -1.0045337681708659e+00 -1.8101183485198398e+00 0 0 0
162 145 3 -1.7999999999999999e-01 -1.3215269247430965e+00 -6.9132441456377614e-01 1.9442011749279589e+00 0 0 0
163 145 1 8.9999999999999997e-02 -2.4135150121794444e+00 -9.0207374270807572e-01 2.0063029798288965e+00 0 0 0
165 145 3 -1.7999999999999999e-01 -5.7917114057653429e-01 -1.9367409569359559e+00 1.4368974970302062e+00 0 0 0
166 145 1 8.9999999999999997e-02 -8.8000313839565147e-01 -2.1582057421002219e+00 3.9225760254460973e-01 0 0 0
167 145 1 8.9999999999999997e-02 -8.9738317765139408e-01 -2.7969723274794731e+00 2.0668455053983394e+00 0 0 0
202 296 10 -8.3399999999999996e-01 -5.1957708665420341e+00 -5.6261129750397361e+00 3.1720925165688350e+00 0 0 0
203 296 9 4.1699999999999998e-01 -4.6673238899316063e+00 -5.4071805420039087e+00 2.3822139422452073e+00 0 0 0
204 296 9 4.1699999999999998e-01 -5.9875706278010430e+00 -5.0786493539867044e+00 3.0406598375527887e+00 0 0 0
229 305 10 -8.3399999999999996e-01 -5.3029870367175551e+00 -2.7956529185821539e+00 7.4947198906216894e-01 0 0 0
230 305 9 4.1699999999999998e-01 -4.8639894303961686e+00 -2.6742693727927880e+00 1.6238434055719742e+00 0 0 0
231 305 9 4.1699999999999998e-01 -5.7603910900666655e+00 -1.9368250295488700e+00 6.6566898697762333e-01 0 0 0
238 308 10 -8.3399999999999996e-01 -7.4525383724246810e+00 -1.4194153112374712e+00 3.3270754750704952e+00 0 0 0
239 308 9 4.1699999999999998e-01 -7.3469723033622820e+00 -1.1580192921026515e+00 2.3915988736171312e+00 0 0 0
240 308 9 4.1699999999999998e-01 -6.7817234348181312e+00 -8.3017082738285097e-01 3.7309041943232120e+00 0 0 0
331 339 10 -8.3399999999999996e-01 -3.7437160803286971e+00 -5.1002207396252182e+00 8.1385255035629245e-01 0 0 0
332 339 9 4.1699999999999998e-01 -2.7734948586396104e+00 -4.9952375647157323e+00 7.4036169755162007e-01 0 0 0
333 339 9 4.1699999999999998e-01 -4.0812530822470929e+00 -4.2145088230177885e+00 5.7559843424229085e-01 0 0 0
337 341 10 -8.3399999999999996e-01 -1.0367464953750736e+00 -5.4643459081508929e+00 1.0506087428070026e+00 0 0 0
338 341 9 4.1699999999999998e-01 -2.7856521903860487e-01 -6.0547036278611603e+00 1.1452997759278745e+00 0 0 0
339 341 9 4.1699999999999998e-01 -1.1266848197196686e+00 -5.1400330476757397e+00 1.9749221064840776e+00 0 0 0
364 350 10 -8.3399999999999996e-01 -4.0871138225799788e+00 -2.6671095853866347e+00 3.1336483008196754e+00 0 0 0
365 350 9 4.1699999999999998e-01 -3.2139326367199397e+00 -2.6812753908937448e+00 3.5598208486243101e+00 0 0 0
366 350 9 4.1699999999999998e-01 -4.6554080792324939e+00 -3.0153739063251410e+00 3.8510595286191434e+00 0 0 0
211 299 10 -8.3399999999999996e-01 -5.6263903111038402e+00 -7.4409229060902158e+00 8.1705263959084053e+00 0 0 0
212 299 9 4.1699999999999998e-01 -6.1813877981041028e+00 -7.8071285411116627e+00 7.4479231852823986e+00 0 0 0
213 299 9 4.1699999999999998e-01 -6.2792451517292287e+00 -6.9174131590038801e+00 8.6765695423868987e+00 0 0 0
205 297 10 -8.3399999999999996e-01 -7.0284471077302317e+00 -7.9689800190459668e+00 5.8882303824348448e+00 0 0 0
206 297 9 4.1699999999999998e-01 -6.3021926537651476e+00 -8.0368569871089104e+00 5.2315181229044017e+00 0 0 0
207 297 9 4.1699999999999998e-01 -7.3714636236092490e+00 -7.0730885912989727e+00 5.6922507075393254e+00 0 0 0
217 301 10 -8.3399999999999996e-01 -4.8023213859147216e+00 -7.2626033299306023e+00 1.0827599889606349e+01 0 0 0
218 301 9 4.1699999999999998e-01 -4.7795328417341905e+00 -7.6015226615727327e+00 9.9152577451979074e+00 0 0 0
219 301 9 4.1699999999999998e-01 -5.7229173360586225e+00 -6.9564692576318095e+00 1.0868530113030328e+01 0 0 0
340 342 10 -8.3399999999999996e-01 -2.7295755923112763e-01 -7.9281660380585732e+00 2.8018711026337244e+00 0 0 0
381 355 9 4.1699999999999998e-01 -8.5958039823919796e-01 -1.7348970575555067e+00 1.0459864743206422e+01 0 0 0
342 342 9 4.1699999999999998e-01 -9.0448040188666923e-01 -8.1456042315329640e+00 2.0831816379321841e+00 0 0 0
346 344 10 -8.3399999999999996e-01 -1.3075619560250993e+00 -6.5779770406691496e+00 8.4674030806144192e+00 0 0 0
347 344 9 4.1699999999999998e-01 -1.3815427361939576e+00 -5.6143130029422856e+00 8.6340043904949066e+00 0 0 0
348 344 9 4.1699999999999998e-01 -2.0397660208818218e+00 -6.6802558561962719e+00 7.8244345165582390e+00 0 0 0
352 346 10 -8.3399999999999996e-01 -9.0396686069369148e-01 -6.7975199771390029e+00 1.1180530733777866e+01 0 0 0
353 346 9 4.1699999999999998e-01 -9.7835983725826337e-01 -7.7211937345485113e+00 1.1439983455163821e+01 0 0 0
354 346 9 4.1699999999999998e-01 -1.0628061797355017e+00 -6.8400969044044482e+00 1.0213387967510155e+01 0 0 0
208 298 10 -8.3399999999999996e-01 -7.5373205828680367e+00 -5.2750240037098397e+00 5.6451821602962644e+00 0 0 0
209 298 9 4.1699999999999998e-01 -6.7163040628057358e+00 -4.7959015338402011e+00 5.4057529981777730e+00 0 0 0
210 298 9 4.1699999999999998e-01 -7.7034065480107632e+00 -4.8964146250507348e+00 6.5295332482330828e+00 0 0 0
220 302 10 -8.3399999999999996e-01 -7.0234600347774405e+00 -5.7717615379418925e+00 9.8615087528799457e+00 0 0 0
221 302 9 4.1699999999999998e-01 -6.4429692301258994e+00 -5.0368062844293933e+00 1.0152842538852807e+01 0 0 0
222 302 9 4.1699999999999998e-01 -7.6092797554448444e+00 -5.2768491192471405e+00 9.2634936992707502e+00 0 0 0
244 310 10 -8.3399999999999996e-01 -7.6844550690087656e+00 -1.7142357086687372e+00 6.1634085817110247e+00 0 0 0
245 310 9 4.1699999999999998e-01 -7.9739259107891707e+00 -1.6165544168338513e+00 5.2371149495747664e+00 0 0 0
246 310 9 4.1699999999999998e-01 -7.7041931746028007e+00 -7.8119835837161467e-01 6.4666971474997297e+00 0 0 0
247 311 10 -8.3399999999999996e-01 -7.4246892117746413e+00 -3.7631594911695907e+00 7.9821194379513143e+00 0 0 0
248 311 9 4.1699999999999998e-01 -6.6468301301265873e+00 -3.4743654892218858e+00 8.4851809440235737e+00 0 0 0
249 311 9 4.1699999999999998e-01 -7.6317372854749079e+00 -2.9686140163124883e+00 7.4459179626149936e+00 0 0 0
256 314 10 -8.3399999999999996e-01 -4.7982633497972929e+00 -8.9438802092955849e-01 1.0549565628459987e+01 0 0 0
257 314 9 4.1699999999999998e-01 -5.2154425480992366e+00 -1.8622726042067927e-01 1.0011961365562032e+01 0 0 0
258 314 9 4.1699999999999998e-01 -5.0884492154145464e+00 -6.5779017106497961e-01 1.1437385549675637e+01 0 0 0
164 145 1 8.9999999999999997e-02 -9.7269553130048736e-01 -4.8377852524150361e-01 2.9787282110465920e+00 0 0 0
214 300 10 -8.3399999999999996e-01 -3.5206787763990972e+00 -6.2281544336676724e+00 6.9098819448300270e+00 0 0 0
215 300 9 4.1699999999999998e-01 -3.7632197805626713e+00 -5.2874081136471620e+00 7.0155327222754646e+00 0 0 0
216 300 9 4.1699999999999998e-01 -4.2793991371007296e+00 -6.6803103442370722e+00 7.3399067675216871e+00 0 0 0
241 309 10 -8.3399999999999996e-01 -5.6160084955991127e+00 -3.3626648135902411e+00 5.3244894858735901e+00 0 0 0
242 309 9 4.1699999999999998e-01 -4.9741851218617628e+00 -3.4312495165095891e+00 6.0617994128764661e+00 0 0 0
243 309 9 4.1699999999999998e-01 -6.2237739874732227e+00 -2.6712570786133059e+00 5.6500594207500603e+00 0 0 0
250 312 10 -8.3399999999999996e-01 -3.9202555153103029e+00 -9.5903653977467607e-01 6.1144771357255001e+00 0 0 0
382 356 10 -8.3399999999999996e-01 -2.1559695258941391e+00 -7.7526387037492972e-01 9.6849596917385163e+00 0 0 0
252 312 9 4.1699999999999998e-01 -4.5776649860405660e+00 -6.0667091210887614e-01 5.4787778843234145e+00 0 0 0
253 313 10 -8.3399999999999996e-01 -5.3285710967900286e+00 -3.6562217286879513e+00 1.0322215775044324e+01 0 0 0
254 313 9 4.1699999999999998e-01 -4.5762630749091899e+00 -4.0749787784166616e+00 1.0784453280747559e+01 0 0 0
255 313 9 4.1699999999999998e-01 -5.0780078334934169e+00 -2.7132144690762363e+00 1.0357526680522124e+01 0 0 0
343 343 10 -8.3399999999999996e-01 -2.4560607071098723e+00 -7.1688622973800351e+00 4.5359131061622975e+00 0 0 0
344 343 9 4.1699999999999998e-01 -2.2992992362256142e+00 -6.3046712584867795e+00 4.1099805651140295e+00 0 0 0
345 343 9 4.1699999999999998e-01 -2.7876835442577836e+00 -6.8777021112901195e+00 5.4107422400843470e+00 0 0 0
349 345 10 -8.3399999999999996e-01 -1.9767857127900734e+00 -4.0592467944237134e+00 9.2882731312089657e+00 0 0 0
350 345 9 4.1699999999999998e-01 -1.2660154208169077e+00 -3.5297747149819849e+00 9.7183635653419742e+00 0 0 0
351 345 9 4.1699999999999998e-01 -2.4495710050993420e+00 -4.3793090400198791e+00 1.0084522404918458e+01 0 0 0
355 347 10 -8.3399999999999996e-01 -3.2071697849841669e+00 -5.1615740576739775e+00 1.1448980970005362e+01 0 0 0
356 347 9 4.1699999999999998e-01 -2.3666968984472083e+00 -5.5791107167475253e+00 1.1714156088320241e+01 0 0 0
357 347 9 4.1699999999999998e-01 -3.7708466212528928e+00 -5.9612233516845157e+00 1.1341718414208826e+01 0 0 0
367 351 10 -8.3399999999999996e-01 -1.3283515638221564e+00 -4.7997164633748710e+00 3.6652135247246491e+00 0 0 0
368 351 9 4.1699999999999998e-01 -6.1844052686438333e-01 -5.1715521882873707e+00 4.2402605531016775e+00 0 0 0
369 351 9 4.1699999999999998e-01 -1.5215446957574625e+00 -3.9595884920717701e+00 4.1328592252468628e+00 0 0 0
370 352 10 -8.3399999999999996e-01 -1.9692482622631957e+00 -2.4876334186912374e+00 4.9942319448897790e+00 0 0 0
371 352 9 4.1699999999999998e-01 -1.3542777580068539e+00 -2.2957077888313919e+00 5.7290765387121034e+00 0 0 0
372 352 9 4.1699999999999998e-01 -2.7158517410086120e+00 -1.9261687598254502e+00 5.2892273492706554e+00 0 0 0
373 353 10 -8.3399999999999996e-01 -3.8535827259984989e+00 -3.4678908979496610e+00 7.3945311811270411e+00 0 0 0
374 353 9 4.1699999999999998e-01 -3.1592060868766834e+00 -3.6107128152694430e+00 8.0751515369567493e+00 0 0 0
375 353 9 4.1699999999999998e-01 -3.6942309691980890e+00 -2.5351576076117155e+00 7.1510202592443477e+00 0 0 0
376 354 10 -8.3399999999999996e-01 -8.4017263898397021e-01 -1.6889906210440890e+00 7.3936978213858584e+00 0 0 0
13 13 8 0.0000000000000000e+00 -8.1615067647123425e+00 5.8498993981079395e-01 -6.5693945593370549e+00 0 0 0
15 15 8 0.0000000000000000e+00 -8.1121224075401219e+00 2.3211825261440859e+00 -4.2347094850278637e+00 0 0 0
19 19 8 0.0000000000000000e+00 -8.0930457346521791e+00 5.5640157064601237e+00 -6.6785154155902013e+00 0 0 0
259 315 10 -8.3399999999999996e-01 -6.5983044286005814e+00 1.4412676719815287e+00 -9.2876635014748885e+00 0 0 0
260 315 9 4.1699999999999998e-01 -6.1313551533566573e+00 2.3011640249359488e+00 -9.2989889505835883e+00 0 0 0
261 315 9 4.1699999999999998e-01 -7.5210907082712772e+00 1.7004715920031876e+00 -9.2668105201001278e+00 0 0 0
289 325 10 -8.3399999999999996e-01 -6.1307125481769260e+00 6.4920263647822658e+00 -9.3632700102447828e+00 0 0 0
290 325 9 4.1699999999999998e-01 -6.2937132425285709e+00 7.3997963301273231e+00 -9.7060759727849089e+00 0 0 0
291 325 9 4.1699999999999998e-01 -6.6654788845441448e+00 6.5116808561706652e+00 -8.5628721778425643e+00 0 0 0
14 14 8 0.0000000000000000e+00 -6.6462610730461185e+00 3.0778221276518081e+00 -6.6246898222905788e+00 0 0 0
16 16 8 0.0000000000000000e+00 -6.5958701421331973e+00 4.7963490388343049e+00 -4.2932347634551036e+00 0 0 0
37 37 8 0.0000000000000000e+00 -5.2042257015392579e+00 6.1464066967372299e-01 -6.5890087224318892e+00 0 0 0
38 38 8 0.0000000000000000e+00 -3.7521117109698214e+00 3.0879539023759861e+00 -6.6214632430928377e+00 0 0 0
39 39 8 0.0000000000000000e+00 -5.1837682392765290e+00 2.3132569114760844e+00 -4.2278775824638446e+00 0 0 0
40 40 8 0.0000000000000000e+00 -3.7234329119486040e+00 4.7965119916841097e+00 -4.2921507632260338e+00 0 0 0
43 43 8 0.0000000000000000e+00 -5.1721440413700597e+00 5.5733815566953595e+00 -6.6749698202626000e+00 0 0 0
61 61 8 0.0000000000000000e+00 -2.3287812134434396e+00 5.9429863815891615e-01 -6.5698564885298651e+00 0 0 0
62 62 8 0.0000000000000000e+00 -8.6995462128400958e-01 3.0455349166984425e+00 -6.6332827329165465e+00 0 0 0
63 63 8 0.0000000000000000e+00 -2.3092335252594887e+00 2.2998892674290481e+00 -4.2419251914309681e+00 0 0 0
64 64 8 0.0000000000000000e+00 -8.4626318068058248e-01 4.7748509637769088e+00 -4.3238121838686148e+00 0 0 0
67 67 8 0.0000000000000000e+00 -2.2816156346552279e+00 5.5478399204561288e+00 -6.6913478088340064e+00 0 0 0
262 316 10 -8.3399999999999996e-01 -5.1856366962205840e+00 3.8010658279188290e+00 -9.3829801115230396e+00 0 0 0
263 316 9 4.1699999999999998e-01 -4.3971576332651594e+00 4.3674753468006777e+00 -9.2846931554034686e+00 0 0 0
264 316 9 4.1699999999999998e-01 -5.8307466557789667e+00 4.5009316742318344e+00 -9.5828713041972104e+00 0 0 0
385 357 10 -8.3399999999999996e-01 -3.0501263338406899e+00 1.8910196207041978e+00 -9.3603829132799046e+00 0 0 0
386 357 9 4.1699999999999998e-01 -2.3947236262775151e+00 2.6141062752690365e+00 -9.3899892049422036e+00 0 0 0
387 357 9 4.1699999999999998e-01 -3.8817666111281484e+00 2.3979982018920900e+00 -9.3833240939962614e+00 0 0 0
388 358 10 -8.3399999999999996e-01 -1.3648751300248092e+00 4.1156031800152597e+00 -9.5223961606442753e+00 0 0 0
389 358 9 4.1699999999999998e-01 -1.0098296876104527e+00 4.5098151760332170e+00 -1.0327316394401773e+01 0 0 0
390 358 9 4.1699999999999998e-01 -2.0645377449802256e+00 4.7656772275483510e+00 -9.2960416418105893e+00 0 0 0
403 363 10 -8.3399999999999996e-01 -3.4301154440350401e+00 5.9185560826551722e+00 -9.4013936599354739e+00 0 0 0
404 363 9 4.1699999999999998e-01 -2.9411196671385365e+00 6.7689051868965819e+00 -9.4703328322573110e+00 0 0 0
405 363 9 4.1699999999999998e-01 -4.3525212430134443e+00 6.2487145157972268e+00 -9.4185837060309012e+00 0 0 0
21 21 8 0.0000000000000000e+00 -8.0971575715088058e+00 7.2585034192210145e+00 -4.3224769697653009e+00 0 0 0
20 20 8 0.0000000000000000e+00 -6.6366470520518899e+00 8.0976676404687211e+00 -6.7387150116479981e+00 0 0 0
22 22 8 0.0000000000000000e+00 -6.6712110819194512e+00 9.8050192304427934e+00 -4.3963515501523140e+00 0 0 0
44 44 8 0.0000000000000000e+00 -3.7297071705207054e+00 8.0718116821294039e+00 -6.8264464559239171e+00 0 0 0
45 45 8 0.0000000000000000e+00 -5.1660368336571283e+00 7.2987478251497508e+00 -4.3722701240653201e+00 0 0 0
46 46 8 0.0000000000000000e+00 -3.7676376836784384e+00 9.8171331412095793e+00 -4.5233031154412124e+00 0 0 0
68 68 8 0.0000000000000000e+00 -8.2457576317700310e-01 8.0287210505471940e+00 -6.8811293569945278e+00 0 0 0
69 69 8 0.0000000000000000e+00 -2.2846893999201732e+00 7.2935329992315081e+00 -4.4296832340683849e+00 0 0 0
70 70 8 0.0000000000000000e+00 -8.6255383082564197e-01 9.8072738892562104e+00 -4.6320780695732431e+00 0 0 0
292 326 10 -8.3399999999999996e-01 -6.6735596405392004e+00 9.0988816944791573e+00 -9.9094921750130389e+00 0 0 0
293 326 9 4.1699999999999998e-01 -6.9833270818215087e+00 9.4453949529421113e+00 -1.0752833375625757e+01 0 0 0
294 326 9 4.1699999999999998e-01 -6.7030040823061787e+00 9.8702959504820136e+00 -9.3352563922426146e+00 0 0 0
406 364 10 -8.3399999999999996e-01 -2.1518167415795828e+00 8.2968752329254905e+00 -9.6505996745287792e+00 0 0 0
407 364 9 4.1699999999999998e-01 -1.9575422013607049e+00 8.7695456296446803e+00 -1.0466501847554850e+01 0 0 0
408 364 9 4.1699999999999998e-01 -2.0252139190994121e+00 8.9680411518339636e+00 -8.9723427202754884e+00 0 0 0
18 18 8 0.0000000000000000e+00 -8.1222448428129113e+00 4.1010060367948977e+00 -1.9438570791880105e+00 0 0 0
268 318 10 -8.3399999999999996e-01 -6.8079632266435253e+00 3.7126170754005718e+00 8.4391143263453849e-01 0 0 0
269 318 9 4.1699999999999998e-01 -6.2753224772302501e+00 4.4870564780044218e+00 5.9595057193398326e-01 0 0 0
270 318 9 4.1699999999999998e-01 -7.2611816704544685e+00 4.0344094372038768e+00 1.6369797879411236e+00 0 0 0
271 319 10 -8.3399999999999996e-01 -5.8577583166990976e+00 3.8677266392440474e-01 4.6365896217525746e+00 0 0 0
272 319 9 4.1699999999999998e-01 -5.7107504176747810e+00 1.2576402151280655e+00 4.2182574675052695e+00 0 0 0
273 319 9 4.1699999999999998e-01 -6.4308582223018691e+00 6.3124407258612025e-01 5.3906683476737483e+00 0 0 0
301 329 10 -8.3399999999999996e-01 -7.1941345005007111e+00 5.3470318750089652e+00 3.1258446263131741e+00 0 0 0
302 329 9 4.1699999999999998e-01 -7.5891678939804557e+00 5.9900094536312460e+00 2.5089415986403214e+00 0 0 0
303 329 9 4.1699999999999998e-01 -7.4244208204568034e+00 5.7262181570534070e+00 3.9959348702047368e+00 0 0 0
17 17 8 0.0000000000000000e+00 -6.6465308692663667e+00 1.5727987456433210e+00 -1.8362522984684524e+00 0 0 0
23 23 8 0.0000000000000000e+00 -6.5854062982800468e+00 6.5367935250460212e+00 -1.9749391528100382e+00 0 0 0
41 41 8 0.0000000000000000e+00 -3.7380695381605591e+00 1.5234020779404507e+00 -1.8527778697907080e+00 0 0 0
42 42 8 0.0000000000000000e+00 -5.1653522889616870e+00 4.0364260456881871e+00 -1.8761017698322393e+00 0 0 0
47 47 8 0.0000000000000000e+00 -3.7020808160353527e+00 6.5345729405374620e+00 -2.0026554028023082e+00 0 0 0
65 65 8 0.0000000000000000e+00 -8.6931545334064875e-01 1.5103405075695624e+00 -1.8836034434845381e+00 0 0 0
66 66 8 0.0000000000000000e+00 -2.2824306021242471e+00 4.0268316624079752e+00 -1.9087423504115084e+00 0 0 0
71 71 8 0.0000000000000000e+00 -8.3011606026483098e-01 6.5533095520391225e+00 -2.0662593938683878e+00 0 0 0
156 145 3 -1.7999999999999999e-01 -1.2803031756053238e+00 1.8806756254378629e+00 1.8164824001365907e+00 0 0 0
157 145 1 8.9999999999999997e-02 -1.3446630576517540e+00 2.6908596293734064e+00 1.0548454143344852e+00 0 0 0
158 145 1 8.9999999999999997e-02 -2.2367537448811654e+00 1.8635622152949773e+00 2.3844235815892194e+00 0 0 0
159 145 3 -1.7999999999999999e-01 -1.1230440967238073e+00 5.4840473180057003e-01 1.0652985397307007e+00 0 0 0
161 145 1 8.9999999999999997e-02 -1.8924490830544873e+00 5.1107642762310856e-01 2.5904923573208116e-01 0 0 0
265 317 10 -8.3399999999999996e-01 -4.9278539854835079e+00 1.7752292679093253e+00 9.1665975795222010e-01 0 0 0
266 317 9 4.1699999999999998e-01 -4.1622918903308843e+00 2.3686088500219400e+00 8.4805534147696660e-01 0 0 0
267 317 9 4.1699999999999998e-01 -5.6648906642657604e+00 2.4192124906569314e+00 8.6825934437784580e-01 0 0 0
274 320 10 -8.3399999999999996e-01 -5.6893327005584835e+00 3.1341574790360927e+00 3.9686134042364971e+00 0 0 0
275 320 9 4.1699999999999998e-01 -4.7644399962851898e+00 3.4231249658283676e+00 3.8593248964591917e+00 0 0 0
276 320 9 4.1699999999999998e-01 -6.1639609240657807e+00 3.8186353029904065e+00 3.4591732670237083e+00 0 0 0
295 327 10 -8.3399999999999996e-01 -5.3373806807406581e+00 6.0912688737110248e+00 7.1791298299988304e-01 0 0 0
296 327 9 4.1699999999999998e-01 -5.0398266356912549e+00 6.4860983335156934e+00 1.5652034666163437e+00 0 0 0
297 327 9 4.1699999999999998e-01 -6.2247562505074772e+00 6.4869613856997157e+00 6.1847130755763913e-01 0 0 0
391 359 10 -8.3399999999999996e-01 -3.3882578456780950e+00 4.1756639688993946e+00 1.0209900718425204e+00 0 0 0
392 359 9 4.1699999999999998e-01 -3.3290188811082357e+00 4.2051543618717524e+00 1.9955862215239084e+00 0 0 0
393 359 9 4.1699999999999998e-01 -4.0771076049149420e+00 4.8395385428998985e+00 8.2456013344142665e-01 0 0 0
409 365 10 -8.3399999999999996e-01 -8.6250652466011446e-01 5.3153399059836879e+00 6.1602189983191247e-01 0 0 0
410 365 9 4.1699999999999998e-01 -1.6243900029260503e+00 4.7043808064210024e+00 6.2752117117448036e-01 0 0 0
411 365 9 4.1699999999999998e-01 -1.3304839635003398e+00 6.1712550413660923e+00 6.0478723587579997e-01 0 0 0
24 24 8 0.0000000000000000e+00 -8.0867922037214353e+00 9.0008219379714944e+00 -1.9610734800127556e+00 0 0 0
298 328 10 -8.3399999999999996e-01 -8.0399599265805541e+00 6.7967991913079491e+00 8.0879967475558889e-01 0 0 0
299 328 9 4.1699999999999998e-01 -8.4004378110048812e+00 7.6736303196214504e+00 6.2541098217523516e-01 0 0 0