LAMMPS data file via write_data, version 7 Aug 2019, timestep = 3539

1440 atoms
3 atom types

9.5692267392453156e-01 2.9664602891660422e+01 xlo xhi
5.5247960016523612e-01 3.0386378009088105e+01 ylo yhi
1.1884930960675590e+00 2.9316163036333460e+01 zlo zhi

Masses

1 196.966   #Gold
2 22.9898   #Sodium
3 35.453    #Chlorine

Pair Coeffs # lj/charmmfsw/coul/charmmfsh/bsct

1 5.29 2.62904 5.29 2.62904
2 0.0469 2.42993 0.0469 2.42993
3 0.15 4.04468018036 0.15 4.04468018036

Atoms # full

685 0 1 0.0000000000000000e+00 7.1769200544341007e+00 4.1435970014196020e+00 2.5585332505011675e+00 0 0 0
713 0 1 0.0000000000000000e+00 2.8707680217736513e+00 6.6297552021632811e+00 2.5585332505011480e+00 0 0 0
714 0 1 0.0000000000000000e+00 4.3061520326604628e+00 4.1435970014197085e+00 2.5585332505011884e+00 0 0 0
715 0 1 0.0000000000000000e+00 1.4353840108867768e+00 4.1435970014196570e+00 2.5585332505011968e+00 0 0 0
716 0 1 0.0000000000000000e+00 5.7415360435472458e+00 6.6297552021632988e+00 2.5585332505011311e+00 0 0 0
718 0 1 0.0000000000000000e+00 7.1769200544340679e+00 5.8010358022300208e+00 4.9024787083677523e+00 0 0 0
719 0 1 0.0000000000000000e+00 4.3061520326604752e+00 5.8010358022300883e+00 4.9024787083677586e+00 0 0 0
723 0 1 0.0000000000000000e+00 7.1769200544340999e+00 7.4584746029130606e+00 7.2464831750140162e+00 0 0 0
751 0 1 0.0000000000000000e+00 1.4353840108867870e+00 5.8010358022300919e+00 4.9024787083677337e+00 0 0 0
754 0 1 0.0000000000000000e+00 4.3061520326604601e+00 7.4584746029130287e+00 7.2464831750139220e+00 0 0 0
755 0 1 0.0000000000000000e+00 1.4353840108867728e+00 7.4584746029129443e+00 7.2464831750138758e+00 0 0 0
930 0 1 0.0000000000000000e+00 5.7415360435474252e+00 1.6574388006762142e+00 2.5585332505011738e+00 0 0 0
934 0 1 0.0000000000000000e+00 7.1769200544340679e+00 8.2871940074292239e-01 4.9024787083677337e+00 0 0 0
962 0 1 0.0000000000000000e+00 2.8707680217735083e+00 1.6574388006761929e+00 2.5585332505012093e+00 0 0 0
963 0 1 0.0000000000000000e+00 2.8707680217735327e+00 3.3148776014865544e+00 4.9024787083677106e+00 0 0 0
964 0 1 0.0000000000000000e+00 4.3061520326604761e+00 8.2871940074289951e-01 4.9024787083677639e+00 0 0 0
965 0 1 0.0000000000000000e+00 1.4353840108868059e+00 8.2871940074293771e-01 4.9024787083676173e+00 0 0 0
966 0 1 0.0000000000000000e+00 5.7415360435473630e+00 3.3148776014865438e+00 4.9024787083677168e+00 0 0 0
967 0 1 0.0000000000000000e+00 5.7415360435473293e+00 4.9723164021694348e+00 7.2464831750139274e+00 0 0 0
968 0 1 0.0000000000000000e+00 7.1769200544340128e+00 2.4861582014257899e+00 7.2464831750139416e+00 0 0 0
969 0 1 0.0000000000000000e+00 4.3061520326605089e+00 2.4861582014257206e+00 7.2464831750139984e+00 0 0 0
973 0 1 0.0000000000000000e+00 7.1769200544341123e+00 4.1435970019292530e+00 9.5905160587366005e+00 0 0 0
1001 0 1 0.0000000000000000e+00 1.4353840108869174e+00 2.4861582014258885e+00 7.2464831750138599e+00 0 0 0
1002 0 1 0.0000000000000000e+00 2.8707680217736167e+00 4.9723164021694739e+00 7.2464831750138901e+00 0 0 0
1003 0 1 0.0000000000000000e+00 2.8707680217736984e+00 6.6297552026727580e+00 9.5905160587366112e+00 0 0 0
1004 0 1 0.0000000000000000e+00 4.3061520326604397e+00 4.1435970019292530e+00 9.5905160587367408e+00 0 0 0
1005 0 1 0.0000000000000000e+00 1.4353840108867701e+00 4.1435970019292636e+00 9.5905160587367178e+00 0 0 0
1006 0 1 0.0000000000000000e+00 5.7415360435472707e+00 6.6297552026727402e+00 9.5905160587365987e+00 0 0 0
1160 0 1 0.0000000000000000e+00 5.7415360435472227e+00 1.6574388011855958e+00 9.5905160587365028e+00 0 0 0
1192 0 1 0.0000000000000000e+00 2.8707680217737375e+00 1.6574388011855683e+00 9.5905160587365401e+00 0 0 0
661 0 1 0.0000000000000000e+00 1.4353840108868031e+01 6.6297552021633059e+00 2.5585332505010991e+00 0 0 0
663 0 1 0.0000000000000000e+00 1.2918456097981192e+01 4.1435970014196482e+00 2.5585332505011156e+00 0 0 0
683 0 1 0.0000000000000000e+00 8.6123040653209451e+00 6.6297552021632811e+00 2.5585332505011289e+00 0 0 0
684 0 1 0.0000000000000000e+00 1.0047688076207566e+01 4.1435970014197068e+00 2.5585332505011937e+00 0 0 0
686 0 1 0.0000000000000000e+00 1.1483072087094417e+01 6.6297552021632900e+00 2.5585332505011436e+00 0 0 0
688 0 1 0.0000000000000000e+00 1.2918456097981172e+01 5.8010358022300279e+00 4.9024787083677692e+00 0 0 0
689 0 1 0.0000000000000000e+00 1.0047688076207653e+01 5.8010358022300332e+00 4.9024787083677177e+00 0 0 0
693 0 1 0.0000000000000000e+00 1.2918456097981213e+01 7.4584746029131086e+00 7.2464831750139931e+00 0 0 0
722 0 1 0.0000000000000000e+00 1.0047688076207601e+01 7.4584746029130731e+00 7.2464831750139771e+00 0 0 0
906 0 1 0.0000000000000000e+00 1.1483072087094483e+01 1.6574388006762395e+00 2.5585332505011742e+00 0 0 0
907 0 1 0.0000000000000000e+00 1.4353840108868063e+01 1.6574388006762146e+00 2.5585332505010077e+00 0 0 0
908 0 1 0.0000000000000000e+00 1.4353840108867999e+01 3.3148776014866161e+00 4.9024787083677479e+00 0 0 0
910 0 1 0.0000000000000000e+00 1.2918456097981144e+01 8.2871940074285966e-01 4.9024787083677905e+00 0 0 0
931 0 1 0.0000000000000000e+00 8.6123040653208207e+00 1.6574388006762213e+00 2.5585332505011351e+00 0 0 0
932 0 1 0.0000000000000000e+00 8.6123040653208225e+00 3.3148776014865500e+00 4.9024787083676822e+00 0 0 0
933 0 1 0.0000000000000000e+00 1.0047688076207612e+01 8.2871940074289330e-01 4.9024787083677124e+00 0 0 0
935 0 1 0.0000000000000000e+00 1.1483072087094499e+01 3.3148776014865708e+00 4.9024787083677150e+00 0 0 0
936 0 1 0.0000000000000000e+00 1.1483072087094383e+01 4.9723164021694490e+00 7.2464831750138314e+00 0 0 0
937 0 1 0.0000000000000000e+00 1.2918456097981164e+01 2.4861582014256967e+00 7.2464831750139416e+00 0 0 0
938 0 1 0.0000000000000000e+00 1.0047688076207637e+01 2.4861582014257442e+00 7.2464831750140322e+00 0 0 0
939 0 1 0.0000000000000000e+00 1.4353840108868001e+01 4.9723164021694597e+00 7.2464831750138741e+00 0 0 0
940 0 1 0.0000000000000000e+00 1.4353840108867814e+01 6.6297552026727331e+00 9.5905160587365703e+00 0 0 0
942 0 1 0.0000000000000000e+00 1.2918456097981203e+01 4.1435970019292530e+00 9.5905160587367817e+00 0 0 0
970 0 1 0.0000000000000000e+00 8.6123040653208420e+00 4.9723164021694704e+00 7.2464831750139806e+00 0 0 0
971 0 1 0.0000000000000000e+00 8.6123040653208065e+00 6.6297552026727598e+00 9.5905160587365188e+00 0 0 0
972 0 1 0.0000000000000000e+00 1.0047688076207626e+01 4.1435970019292014e+00 9.5905160587366431e+00 0 0 0
974 0 1 0.0000000000000000e+00 1.1483072087094531e+01 6.6297552026727526e+00 9.5905160587366822e+00 0 0 0
1136 0 1 0.0000000000000000e+00 1.1483072087094383e+01 1.6574388011856487e+00 9.5905160587364584e+00 0 0 0
1137 0 1 0.0000000000000000e+00 1.4353840108868001e+01 1.6574388011856389e+00 9.5905160587365259e+00 0 0 0
1161 0 1 0.0000000000000000e+00 8.6123040653209291e+00 1.6574388011856083e+00 9.5905160587364922e+00 0 0 0
647 0 1 0.0000000000000000e+00 2.0095376152415316e+01 6.6297552021633290e+00 2.5585332505011400e+00 0 0 0
648 0 1 0.0000000000000000e+00 2.1530760163302059e+01 4.1435970014196934e+00 2.5585332505011480e+00 0 0 0
649 0 1 0.0000000000000000e+00 1.8659992141528452e+01 4.1435970014196766e+00 2.5585332505011853e+00 0 0 0
653 0 1 0.0000000000000000e+00 2.1530760163302027e+01 5.8010358022300030e+00 4.9024787083677177e+00 0 0 0
662 0 1 0.0000000000000000e+00 1.5789224119754836e+01 4.1435970014196304e+00 2.5585332505011222e+00 0 0 0
664 0 1 0.0000000000000000e+00 1.7224608130641581e+01 6.6297552021632935e+00 2.5585332505011462e+00 0 0 0
666 0 1 0.0000000000000000e+00 1.8659992141528470e+01 5.8010358022299906e+00 4.9024787083678190e+00 0 0 0
667 0 1 0.0000000000000000e+00 1.5789224119754801e+01 5.8010358022300883e+00 4.9024787083677426e+00 0 0 0
670 0 1 0.0000000000000000e+00 2.1530760163302318e+01 7.4584746029130908e+00 7.2464831750139789e+00 0 0 0
671 0 1 0.0000000000000000e+00 1.8659992141528214e+01 7.4584746029130429e+00 7.2464831750140251e+00 0 0 0
692 0 1 0.0000000000000000e+00 1.5789224119754838e+01 7.4584746029130589e+00 7.2464831750138741e+00 0 0 0
890 0 1 0.0000000000000000e+00 1.7224608130641499e+01 1.6574388006762177e+00 2.5585332505012039e+00 0 0 0
891 0 1 0.0000000000000000e+00 2.0095376152415234e+01 1.6574388006761840e+00 2.5585332505010756e+00 0 0 0
892 0 1 0.0000000000000000e+00 2.0095376152415216e+01 3.3148776014866277e+00 4.9024787083676928e+00 0 0 0
893 0 1 0.0000000000000000e+00 2.1530760163302151e+01 8.2871940074288031e-01 4.9024787083677479e+00 0 0 0
894 0 1 0.0000000000000000e+00 1.8659992141528328e+01 8.2871940074279771e-01 4.9024787083678500e+00 0 0 0
898 0 1 0.0000000000000000e+00 2.1530760163302180e+01 2.4861582014257726e+00 7.2464831750140055e+00 0 0 0
909 0 1 0.0000000000000000e+00 1.5789224119754957e+01 8.2871940074296147e-01 4.9024787083676626e+00 0 0 0
911 0 1 0.0000000000000000e+00 1.7224608130641638e+01 3.3148776014865176e+00 4.9024787083677372e+00 0 0 0
912 0 1 0.0000000000000000e+00 1.7224608130641883e+01 4.9723164021694384e+00 7.2464831750139220e+00 0 0 0
913 0 1 0.0000000000000000e+00 1.8659992141528260e+01 2.4861582014257224e+00 7.2464831750140020e+00 0 0 0
914 0 1 0.0000000000000000e+00 1.5789224119754858e+01 2.4861582014257855e+00 7.2464831750139576e+00 0 0 0
915 0 1 0.0000000000000000e+00 2.0095376152415085e+01 4.9723164021694206e+00 7.2464831750138279e+00 0 0 0
916 0 1 0.0000000000000000e+00 2.0095376152415067e+01 6.6297552026727899e+00 9.5905160587366769e+00 0 0 0
917 0 1 0.0000000000000000e+00 2.1530760163302304e+01 4.1435970019292157e+00 9.5905160587365970e+00 0 0 0
918 0 1 0.0000000000000000e+00 1.8659992141528221e+01 4.1435970019292583e+00 9.5905160587366680e+00 0 0 0
941 0 1 0.0000000000000000e+00 1.5789224119754797e+01 4.1435970019291979e+00 9.5905160587366396e+00 0 0 0
943 0 1 0.0000000000000000e+00 1.7224608130641990e+01 6.6297552026727598e+00 9.5905160587366822e+00 0 0 0
1120 0 1 0.0000000000000000e+00 1.7224608130641819e+01 1.6574388011856123e+00 9.5905160587364637e+00 0 0 0
1121 0 1 0.0000000000000000e+00 2.0095376152415117e+01 1.6574388011855443e+00 9.5905160587365366e+00 0 0 0
641 0 1 0.0000000000000000e+00 2.5836912195962512e+01 6.6297552021633024e+00 2.5585332505011711e+00 0 0 0
642 0 1 0.0000000000000000e+00 2.7272296206849138e+01 4.1435970014196828e+00 2.5585332505012515e+00 0 0 0
643 0 1 0.0000000000000000e+00 2.4401528185075552e+01 4.1435970014196357e+00 2.5585332505011289e+00 0 0 0
644 0 1 0.0000000000000000e+00 2.8707680217736097e+01 6.6297552021633042e+00 2.5585332505011764e+00 0 0 0
646 0 1 0.0000000000000000e+00 2.7272296206849141e+01 5.8010358022300599e+00 4.9024787083677692e+00 0 0 0
650 0 1 0.0000000000000000e+00 2.2966144174188578e+01 6.6297552021633237e+00 2.5585332505010965e+00 0 0 0
652 0 1 0.0000000000000000e+00 2.4401528185075584e+01 5.8010358022300421e+00 4.9024787083677834e+00 0 0 0
656 0 1 0.0000000000000000e+00 2.7272296206849287e+01 7.4584746029129683e+00 7.2464831750139771e+00 0 0 0
657 0 1 0.0000000000000000e+00 2.4401528185075414e+01 7.4584746029129629e+00 7.2464831750139931e+00 0 0 0
881 0 1 0.0000000000000000e+00 2.8707680217736112e+01 1.6574388006761376e+00 2.5585332505012239e+00 0 0 0
882 0 1 0.0000000000000000e+00 2.2966144174188614e+01 1.6574388006762109e+00 2.5585332505011769e+00 0 0 0
883 0 1 0.0000000000000000e+00 2.5836912195962562e+01 1.6574388006761891e+00 2.5585332505011968e+00 0 0 0
884 0 1 0.0000000000000000e+00 2.5836912195962586e+01 3.3148776014865842e+00 4.9024787083677248e+00 0 0 0
885 0 1 0.0000000000000000e+00 2.7272296206849134e+01 8.2871940074283679e-01 4.9024787083677053e+00 0 0 0
886 0 1 0.0000000000000000e+00 2.4401528185075552e+01 8.2871940074285144e-01 4.9024787083677230e+00 0 0 0
887 0 1 0.0000000000000000e+00 2.8707680217736108e+01 3.3148776014865584e+00 4.9024787083676609e+00 0 0 0
888 0 1 0.0000000000000000e+00 2.8707680217735980e+01 4.9723164021695219e+00 7.2464831750139806e+00 0 0 0
889 0 1 0.0000000000000000e+00 2.7272296206849056e+01 2.4861582014258401e+00 7.2464831750140695e+00 0 0 0
895 0 1 0.0000000000000000e+00 2.2966144174188585e+01 3.3148776014865637e+00 4.9024787083677337e+00 0 0 0
896 0 1 0.0000000000000000e+00 2.2966144174188656e+01 4.9723164021694668e+00 7.2464831750139611e+00 0 0 0
897 0 1 0.0000000000000000e+00 2.4401528185075581e+01 2.4861582014258525e+00 7.2464831750140180e+00 0 0 0
899 0 1 0.0000000000000000e+00 2.5836912195962555e+01 4.9723164021694242e+00 7.2464831750138758e+00 0 0 0
900 0 1 0.0000000000000000e+00 2.5836912195962615e+01 6.6297552026728539e+00 9.5905160587365366e+00 0 0 0
901 0 1 0.0000000000000000e+00 2.7272296206849354e+01 4.1435970019291766e+00 9.5905160587365543e+00 0 0 0
902 0 1 0.0000000000000000e+00 2.4401528185075410e+01 4.1435970019291624e+00 9.5905160587365472e+00 0 0 0
903 0 1 0.0000000000000000e+00 2.8707680217735952e+01 6.6297552026726994e+00 9.5905160587365401e+00 0 0 0
919 0 1 0.0000000000000000e+00 2.2966144174188560e+01 6.6297552026727828e+00 9.5905160587365348e+00 0 0 0
1111 0 1 0.0000000000000000e+00 2.8707680217735827e+01 1.6574388011855541e+00 9.5905160587366574e+00 0 0 0
1112 0 1 0.0000000000000000e+00 2.2966144174188639e+01 1.6574388011855838e+00 9.5905160587365028e+00 0 0 0
1113 0 1 0.0000000000000000e+00 2.5836912195962586e+01 1.6574388011856409e+00 9.5905160587363536e+00 0 0 0
255 0 1 0.0000000000000000e+00 7.1769200544340199e+00 1.4088229804393906e+01 2.5585332505011529e+00 0 0 0
284 0 1 0.0000000000000000e+00 4.3061520326603979e+00 1.4088229804393913e+01 2.5585332505011289e+00 0 0 0
285 0 1 0.0000000000000000e+00 1.4353840108868132e+00 1.4088229804394038e+01 2.5585332505010707e+00 0 0 0
457 0 1 0.0000000000000000e+00 5.7415360435473257e+00 1.1602071603650481e+01 2.5585332505011511e+00 0 0 0
458 0 1 0.0000000000000000e+00 7.1769200544341052e+00 9.1159134029068483e+00 2.5585332505011826e+00 0 0 0
459 0 1 0.0000000000000000e+00 4.3061520326604841e+00 9.1159134029068145e+00 2.5585332505011960e+00 0 0 0
463 0 1 0.0000000000000000e+00 7.1769200544340981e+00 1.0773352203717129e+01 4.9024787083677834e+00 0 0 0
491 0 1 0.0000000000000000e+00 1.4353840108867586e+00 9.1159134029068323e+00 2.5585332505012319e+00 0 0 0
492 0 1 0.0000000000000000e+00 2.8707680217736051e+00 1.1602071603650472e+01 2.5585332505011786e+00 0 0 0
493 0 1 0.0000000000000000e+00 2.8707680217736602e+00 1.3259510404460823e+01 4.9024787083677364e+00 0 0 0
494 0 1 0.0000000000000000e+00 4.3061520326604521e+00 1.0773352203717156e+01 4.9024787083677692e+00 0 0 0
495 0 1 0.0000000000000000e+00 1.4353840108868212e+00 1.0773352203717195e+01 4.9024787083677639e+00 0 0 0
496 0 1 0.0000000000000000e+00 5.7415360435473133e+00 1.3259510404460830e+01 4.9024787083677008e+00 0 0 0
497 0 1 0.0000000000000000e+00 5.7415360435472973e+00 1.4916949205143824e+01 7.2464831750140180e+00 0 0 0
498 0 1 0.0000000000000000e+00 7.1769200544340679e+00 1.2430791004400186e+01 7.2464831750139789e+00 0 0 0
499 0 1 0.0000000000000000e+00 4.3061520326604859e+00 1.2430791004400124e+01 7.2464831750139984e+00 0 0 0
503 0 1 0.0000000000000000e+00 7.1769200544340661e+00 1.4088229804903559e+01 9.5905160587365206e+00 0 0 0
531 0 1 0.0000000000000000e+00 1.4353840108866738e+00 1.2430791004400037e+01 7.2464831750139025e+00 0 0 0
532 0 1 0.0000000000000000e+00 2.8707680217736953e+00 1.4916949205143897e+01 7.2464831750139700e+00 0 0 0
534 0 1 0.0000000000000000e+00 4.3061520326605365e+00 1.4088229804903497e+01 9.5905160587365508e+00 0 0 0
535 0 1 0.0000000000000000e+00 1.4353840108867142e+00 1.4088229804903598e+01 9.5905160587366058e+00 0 0 0
717 0 1 0.0000000000000000e+00 5.7415360435473133e+00 8.2871940029738411e+00 4.9024787083678039e+00 0 0 0
752 0 1 0.0000000000000000e+00 2.8707680217735847e+00 8.2871940029738074e+00 4.9024787083678030e+00 0 0 0
753 0 1 0.0000000000000000e+00 2.8707680217736664e+00 9.9446328036565408e+00 7.2464831750138936e+00 0 0 0
756 0 1 0.0000000000000000e+00 5.7415360435473364e+00 9.9446328036564591e+00 7.2464831750138705e+00 0 0 0
757 0 1 0.0000000000000000e+00 5.7415360435473000e+00 1.1602071604159979e+01 9.5905160587365916e+00 0 0 0
758 0 1 0.0000000000000000e+00 7.1769200544341070e+00 9.1159134034164104e+00 9.5905160587365916e+00 0 0 0
759 0 1 0.0000000000000000e+00 4.3061520326604210e+00 9.1159134034163909e+00 9.5905160587366236e+00 0 0 0
791 0 1 0.0000000000000000e+00 1.4353840108868638e+00 9.1159134034164566e+00 9.5905160587366236e+00 0 0 0
792 0 1 0.0000000000000000e+00 2.8707680217736904e+00 1.1602071604159926e+01 9.5905160587365792e+00 0 0 0
233 0 1 0.0000000000000000e+00 1.2918456097981357e+01 1.4088229804393940e+01 2.5585332505011489e+00 0 0 0
254 0 1 0.0000000000000000e+00 1.0047688076207734e+01 1.4088229804393908e+01 2.5585332505011169e+00 0 0 0
431 0 1 0.0000000000000000e+00 1.1483072087094406e+01 1.1602071603650483e+01 2.5585332505011626e+00 0 0 0
432 0 1 0.0000000000000000e+00 1.2918456097981196e+01 9.1159134029068039e+00 2.5585332505011409e+00 0 0 0
433 0 1 0.0000000000000000e+00 1.0047688076207573e+01 9.1159134029068145e+00 2.5585332505011666e+00 0 0 0
434 0 1 0.0000000000000000e+00 1.4353840108868049e+01 1.1602071603650524e+01 2.5585332505011356e+00 0 0 0
435 0 1 0.0000000000000000e+00 1.4353840108868031e+01 1.3259510404460878e+01 4.9024787083675827e+00 0 0 0
437 0 1 0.0000000000000000e+00 1.2918456097981196e+01 1.0773352203717133e+01 4.9024787083678154e+00 0 0 0
460 0 1 0.0000000000000000e+00 8.6123040653208385e+00 1.1602071603650440e+01 2.5585332505011462e+00 0 0 0
461 0 1 0.0000000000000000e+00 8.6123040653208367e+00 1.3259510404460768e+01 4.9024787083677976e+00 0 0 0
462 0 1 0.0000000000000000e+00 1.0047688076207624e+01 1.0773352203717184e+01 4.9024787083678047e+00 0 0 0
464 0 1 0.0000000000000000e+00 1.1483072087094387e+01 1.3259510404460793e+01 4.9024787083677639e+00 0 0 0
465 0 1 0.0000000000000000e+00 1.1483072087094433e+01 1.4916949205143819e+01 7.2464831750139824e+00 0 0 0
466 0 1 0.0000000000000000e+00 1.2918456097981032e+01 1.2430791004400080e+01 7.2464831750140180e+00 0 0 0
467 0 1 0.0000000000000000e+00 1.0047688076207733e+01 1.2430791004400190e+01 7.2464831750139274e+00 0 0 0
468 0 1 0.0000000000000000e+00 1.4353840108867860e+01 1.4916949205143926e+01 7.2464831750140322e+00 0 0 0
471 0 1 0.0000000000000000e+00 1.2918456097981226e+01 1.4088229804903548e+01 9.5905160587366218e+00 0 0 0
500 0 1 0.0000000000000000e+00 8.6123040653208776e+00 1.4916949205143844e+01 7.2464831750140428e+00 0 0 0
502 0 1 0.0000000000000000e+00 1.0047688076207629e+01 1.4088229804903595e+01 9.5905160587364993e+00 0 0 0
687 0 1 0.0000000000000000e+00 1.1483072087094474e+01 8.2871940029738198e+00 4.9024787083677861e+00 0 0 0
690 0 1 0.0000000000000000e+00 1.4353840108868047e+01 8.2871940029738411e+00 4.9024787083677834e+00 0 0 0
691 0 1 0.0000000000000000e+00 1.4353840108867839e+01 9.9446328036564289e+00 7.2464831750138297e+00 0 0 0
720 0 1 0.0000000000000000e+00 8.6123040653208474e+00 8.2871940029738571e+00 4.9024787083677639e+00 0 0 0
721 0 1 0.0000000000000000e+00 8.6123040653208260e+00 9.9446328036564342e+00 7.2464831750138741e+00 0 0 0
724 0 1 0.0000000000000000e+00 1.1483072087094516e+01 9.9446328036565106e+00 7.2464831750138883e+00 0 0 0
725 0 1 0.0000000000000000e+00 1.1483072087094561e+01 1.1602071604159962e+01 9.5905160587365348e+00 0 0 0
726 0 1 0.0000000000000000e+00 1.2918456097981165e+01 9.1159134034164211e+00 9.5905160587366431e+00 0 0 0
727 0 1 0.0000000000000000e+00 1.0047688076207644e+01 9.1159134034163838e+00 9.5905160587366147e+00 0 0 0
728 0 1 0.0000000000000000e+00 1.4353840108867839e+01 1.1602071604159974e+01 9.5905160587367178e+00 0 0 0
760 0 1 0.0000000000000000e+00 8.6123040653208012e+00 1.1602071604159956e+01 9.5905160587365987e+00 0 0 0
218 0 1 0.0000000000000000e+00 2.1530760163302055e+01 1.4088229804394061e+01 2.5585332505011356e+00 0 0 0
219 0 1 0.0000000000000000e+00 1.8659992141528480e+01 1.4088229804394032e+01 2.5585332505011169e+00 0 0 0
232 0 1 0.0000000000000000e+00 1.5789224119754685e+01 1.4088229804394008e+01 2.5585332505011196e+00 0 0 0
405 0 1 0.0000000000000000e+00 2.1530760163302041e+01 9.1159134029067577e+00 2.5585332505012381e+00 0 0 0
413 0 1 0.0000000000000000e+00 1.7224608130641609e+01 1.1602071603650458e+01 2.5585332505011809e+00 0 0 0
414 0 1 0.0000000000000000e+00 1.8659992141528473e+01 9.1159134029067950e+00 2.5585332505012013e+00 0 0 0
415 0 1 0.0000000000000000e+00 1.5789224119754826e+01 9.1159134029068145e+00 2.5585332505012164e+00 0 0 0
416 0 1 0.0000000000000000e+00 2.0095376152415213e+01 1.1602071603650476e+01 2.5585332505012497e+00 0 0 0
417 0 1 0.0000000000000000e+00 2.0095376152415316e+01 1.3259510404460654e+01 4.9024787083677337e+00 0 0 0
418 0 1 0.0000000000000000e+00 2.1530760163302055e+01 1.0773352203717241e+01 4.9024787083677763e+00 0 0 0
419 0 1 0.0000000000000000e+00 1.8659992141528480e+01 1.0773352203717307e+01 4.9024787083678154e+00 0 0 0
423 0 1 0.0000000000000000e+00 2.1530760163302137e+01 1.2430791004400078e+01 7.2464831750138812e+00 0 0 0
436 0 1 0.0000000000000000e+00 1.5789224119754804e+01 1.0773352203717158e+01 4.9024787083677142e+00 0 0 0
438 0 1 0.0000000000000000e+00 1.7224608130641620e+01 1.3259510404460798e+01 4.9024787083677568e+00 0 0 0
439 0 1 0.0000000000000000e+00 1.7224608130641954e+01 1.4916949205143888e+01 7.2464831750140180e+00 0 0 0
440 0 1 0.0000000000000000e+00 1.8659992141528349e+01 1.2430791004400060e+01 7.2464831750139203e+00 0 0 0
441 0 1 0.0000000000000000e+00 1.5789224119754930e+01 1.2430791004400128e+01 7.2464831750139220e+00 0 0 0
442 0 1 0.0000000000000000e+00 2.0095376152415067e+01 1.4916949205143890e+01 7.2464831750140233e+00 0 0 0
444 0 1 0.0000000000000000e+00 2.1530760163302389e+01 1.4088229804903607e+01 9.5905160587365366e+00 0 0 0
445 0 1 0.0000000000000000e+00 1.8659992141528196e+01 1.4088229804903730e+01 9.5905160587365614e+00 0 0 0
470 0 1 0.0000000000000000e+00 1.5789224119754772e+01 1.4088229804903587e+01 9.5905160587365756e+00 0 0 0
665 0 1 0.0000000000000000e+00 1.7224608130641521e+01 8.2871940029737701e+00 4.9024787083677923e+00 0 0 0
668 0 1 0.0000000000000000e+00 2.0095376152415330e+01 8.2871940029738038e+00 4.9024787083676458e+00 0 0 0
669 0 1 0.0000000000000000e+00 2.0095376152415085e+01 9.9446328036565692e+00 7.2464831750139256e+00 0 0 0
675 0 1 0.0000000000000000e+00 2.1530760163302197e+01 9.1159134034164122e+00 9.5905160587365472e+00 0 0 0
694 0 1 0.0000000000000000e+00 1.7224608130641901e+01 9.9446328036564982e+00 7.2464831750139931e+00 0 0 0
695 0 1 0.0000000000000000e+00 1.7224608130641904e+01 1.1602071604159717e+01 9.5905160587366343e+00 0 0 0
696 0 1 0.0000000000000000e+00 1.8659992141528200e+01 9.1159134034165099e+00 9.5905160587366289e+00 0 0 0
697 0 1 0.0000000000000000e+00 1.5789224119754961e+01 9.1159134034164726e+00 9.5905160587366538e+00 0 0 0
698 0 1 0.0000000000000000e+00 2.0095376152415071e+01 1.1602071604159741e+01 9.5905160587365472e+00 0 0 0
212 0 1 0.0000000000000000e+00 2.7272296206849202e+01 1.4088229804394055e+01 2.5585332505011840e+00 0 0 0
213 0 1 0.0000000000000000e+00 2.4401528185075541e+01 1.4088229804394063e+01 2.5585332505012111e+00 0 0 0
401 0 1 0.0000000000000000e+00 2.8707680217736090e+01 1.1602071603650483e+01 2.5585332505011591e+00 0 0 0
402 0 1 0.0000000000000000e+00 2.7272296206849205e+01 9.1159134029067967e+00 2.5585332505012199e+00 0 0 0
403 0 1 0.0000000000000000e+00 2.2966144174188596e+01 1.1602071603650460e+01 2.5585332505011320e+00 0 0 0
404 0 1 0.0000000000000000e+00 2.4401528185075538e+01 9.1159134029067701e+00 2.5585332505011951e+00 0 0 0
406 0 1 0.0000000000000000e+00 2.5836912195962558e+01 1.1602071603650451e+01 2.5585332505012128e+00 0 0 0
407 0 1 0.0000000000000000e+00 2.5836912195962555e+01 1.3259510404460865e+01 4.9024787083676813e+00 0 0 0
408 0 1 0.0000000000000000e+00 2.7272296206849123e+01 1.0773352203717240e+01 4.9024787083678403e+00 0 0 0
409 0 1 0.0000000000000000e+00 2.4401528185075566e+01 1.0773352203717204e+01 4.9024787083677905e+00 0 0 0
410 0 1 0.0000000000000000e+00 2.8707680217735962e+01 1.3259510404460720e+01 4.9024787083677888e+00 0 0 0
411 0 1 0.0000000000000000e+00 2.8707680217735888e+01 1.4916949205143869e+01 7.2464831750140553e+00 0 0 0
412 0 1 0.0000000000000000e+00 2.7272296206849457e+01 1.2430791004399966e+01 7.2464831750138954e+00 0 0 0
420 0 1 0.0000000000000000e+00 2.2966144174188585e+01 1.3259510404460853e+01 4.9024787083677541e+00 0 0 0
421 0 1 0.0000000000000000e+00 2.2966144174188631e+01 1.4916949205143947e+01 7.2464831750139664e+00 0 0 0
422 0 1 0.0000000000000000e+00 2.4401528185075421e+01 1.2430791004400005e+01 7.2464831750139345e+00 0 0 0
424 0 1 0.0000000000000000e+00 2.5836912195962558e+01 1.4916949205144038e+01 7.2464831750137586e+00 0 0 0
426 0 1 0.0000000000000000e+00 2.7272296206849472e+01 1.4088229804903641e+01 9.5905160587367018e+00 0 0 0
427 0 1 0.0000000000000000e+00 2.4401528185075264e+01 1.4088229804903536e+01 9.5905160587366449e+00 0 0 0
645 0 1 0.0000000000000000e+00 2.8707680217736076e+01 8.2871940029737701e+00 4.9024787083677621e+00 0 0 0
651 0 1 0.0000000000000000e+00 2.2966144174188564e+01 8.2871940029738642e+00 4.9024787083677959e+00 0 0 0
654 0 1 0.0000000000000000e+00 2.5836912195962590e+01 8.2871940029738038e+00 4.9024787083677124e+00 0 0 0
655 0 1 0.0000000000000000e+00 2.5836912195962590e+01 9.9446328036565745e+00 7.2464831750139522e+00 0 0 0
658 0 1 0.0000000000000000e+00 2.8707680217735888e+01 9.9446328036566705e+00 7.2464831750139469e+00 0 0 0
659 0 1 0.0000000000000000e+00 2.8707680217735888e+01 1.1602071604159866e+01 9.5905160587364193e+00 0 0 0
660 0 1 0.0000000000000000e+00 2.7272296206849155e+01 9.1159134034164619e+00 9.5905160587365064e+00 0 0 0
672 0 1 0.0000000000000000e+00 2.2966144174188624e+01 9.9446328036565017e+00 7.2464831750139220e+00 0 0 0
673 0 1 0.0000000000000000e+00 2.2966144174188642e+01 1.1602071604159987e+01 9.5905160587365383e+00 0 0 0
674 0 1 0.0000000000000000e+00 2.4401528185075559e+01 9.1159134034164175e+00 9.5905160587365224e+00 0 0 0
676 0 1 0.0000000000000000e+00 2.5836912195962562e+01 1.1602071604159812e+01 9.5905160587365401e+00 0 0 0
136 0 1 0.0000000000000000e+00 5.7415360435472813e+00 2.1546704406624791e+01 2.5585332505011746e+00 0 0 0
137 0 1 0.0000000000000000e+00 7.1769200544341096e+00 1.9060546205881039e+01 2.5585332505011684e+00 0 0 0
138 0 1 0.0000000000000000e+00 4.3061520326604557e+00 1.9060546205881181e+01 2.5585332505010849e+00 0 0 0
142 0 1 0.0000000000000000e+00 7.1769200544341487e+00 2.0717985006691681e+01 4.9024787083678918e+00 0 0 0
162 0 1 0.0000000000000000e+00 1.4353840108867217e+00 1.9060546205881149e+01 2.5585332505010432e+00 0 0 0
163 0 1 0.0000000000000000e+00 2.8707680217736700e+00 2.1546704406624620e+01 2.5585332505013434e+00 0 0 0
165 0 1 0.0000000000000000e+00 4.3061520326604104e+00 2.0717985006691798e+01 4.9024787083678794e+00 0 0 0
166 0 1 0.0000000000000000e+00 1.4353840108867377e+00 2.0717985006691826e+01 4.9024787083678261e+00 0 0 0
169 0 1 0.0000000000000000e+00 7.1769200544340777e+00 2.2375423807374041e+01 7.2464831750139824e+00 0 0 0
170 0 1 0.0000000000000000e+00 4.3061520326604947e+00 2.2375423807374005e+01 7.2464831750139220e+00 0 0 0
186 0 1 0.0000000000000000e+00 1.4353840108867459e+00 2.2375423807374180e+01 7.2464831750138829e+00 0 0 0
283 0 1 0.0000000000000000e+00 2.8707680217735501e+00 1.6574388005137468e+01 2.5585332505012102e+00 0 0 0
286 0 1 0.0000000000000000e+00 5.7415360435473577e+00 1.6574388005137742e+01 2.5585332505013207e+00 0 0 0
287 0 1 0.0000000000000000e+00 5.7415360435472902e+00 1.8231826805947730e+01 4.9024787083676413e+00 0 0 0
288 0 1 0.0000000000000000e+00 7.1769200544340892e+00 1.5745668605204607e+01 4.9024787083677372e+00 0 0 0
289 0 1 0.0000000000000000e+00 4.3061520326604397e+00 1.5745668605204610e+01 4.9024787083677976e+00 0 0 0
293 0 1 0.0000000000000000e+00 7.1769200544340848e+00 1.7403107405886988e+01 7.2464831750139842e+00 0 0 0
320 0 1 0.0000000000000000e+00 1.4353840108869016e+00 1.5745668605204576e+01 4.9024787083677204e+00 0 0 0
321 0 1 0.0000000000000000e+00 2.8707680217736442e+00 1.8231826805947740e+01 4.9024787083677248e+00 0 0 0
322 0 1 0.0000000000000000e+00 2.8707680217736389e+00 1.9889265606631280e+01 7.2464831750138599e+00 0 0 0
323 0 1 0.0000000000000000e+00 4.3061520326604610e+00 1.7403107405886953e+01 7.2464831750139007e+00 0 0 0
324 0 1 0.0000000000000000e+00 1.4353840108867484e+00 1.7403107405887098e+01 7.2464831750139274e+00 0 0 0
325 0 1 0.0000000000000000e+00 5.7415360435472778e+00 1.9889265606631323e+01 7.2464831750138758e+00 0 0 0
326 0 1 0.0000000000000000e+00 5.7415360435472973e+00 2.1546704407134470e+01 9.5905160587364513e+00 0 0 0
327 0 1 0.0000000000000000e+00 7.1769200544340839e+00 1.9060546206390494e+01 9.5905160587366058e+00 0 0 0
328 0 1 0.0000000000000000e+00 4.3061520326604414e+00 1.9060546206390509e+01 9.5905160587366698e+00 0 0 0
352 0 1 0.0000000000000000e+00 1.4353840108867235e+00 1.9060546206390455e+01 9.5905160587365827e+00 0 0 0
353 0 1 0.0000000000000000e+00 2.8707680217736673e+00 2.1546704407134481e+01 9.5905160587364762e+00 0 0 0
533 0 1 0.0000000000000000e+00 2.8707680217736593e+00 1.6574388005647158e+01 9.5905160587364584e+00 0 0 0
536 0 1 0.0000000000000000e+00 5.7415360435473488e+00 1.6574388005647076e+01 9.5905160587365241e+00 0 0 0
111 0 1 0.0000000000000000e+00 1.1483072087094385e+01 2.1546704406624606e+01 2.5585332505011773e+00 0 0 0
112 0 1 0.0000000000000000e+00 1.2918456097981048e+01 1.9060546205881231e+01 2.5585332505011462e+00 0 0 0
113 0 1 0.0000000000000000e+00 1.0047688076207683e+01 1.9060546205881231e+01 2.5585332505011147e+00 0 0 0
114 0 1 0.0000000000000000e+00 1.4353840108868059e+01 2.1546704406624713e+01 2.5585332505012772e+00 0 0 0
117 0 1 0.0000000000000000e+00 1.2918456097981164e+01 2.0717985006691727e+01 4.9024787083678572e+00 0 0 0
139 0 1 0.0000000000000000e+00 8.6123040653209184e+00 2.1546704406624681e+01 2.5585332505011382e+00 0 0 0
141 0 1 0.0000000000000000e+00 1.0047688076207624e+01 2.0717985006691617e+01 4.9024787083677834e+00 0 0 0
145 0 1 0.0000000000000000e+00 1.2918456097981149e+01 2.2375423807374027e+01 7.2464831750139451e+00 0 0 0