# 1-C, 2-Li

2 atoms
2 atom types

0 100.0 xlo xhi
0 100.0 ylo yhi
0 100.0 zlo zhi

Masses

1 12.011
2 6.941

Atoms

1 1 -0.5 50.0 50.0 50.0
2 2  0.5 50.0 50.0 53.0
