ITEM: TIMESTEP
0
ITEM: NUMBER OF ATOMS
2
ITEM: BOX BOUNDS ff ff ff
0.0000000000000000e+00 1.0000000000000000e+02
0.0000000000000000e+00 1.0000000000000000e+02
0.0000000000000000e+00 1.0000000000000000e+02
ITEM: ATOMS id type x y z q f_ct 
1 1 50 50 50 7.5 -2.5 
2 2 50 50 53 -7.5 2.5 
ITEM: TIMESTEP
1
ITEM: NUMBER OF ATOMS
2
ITEM: BOX BOUNDS ff ff ff
0.0000000000000000e+00 1.0000000000000000e+02
0.0000000000000000e+00 1.0000000000000000e+02
0.0000000000000000e+00 1.0000000000000000e+02
ITEM: ATOMS id type x y z q f_ct 
1 1 50 50 50.0024 7.45973 -2.49195 
2 2 50 50 52.9959 -7.45973 2.49195 
ITEM: TIMESTEP
2
ITEM: NUMBER OF ATOMS
2
ITEM: BOX BOUNDS ff ff ff
0.0000000000000000e+00 1.0000000000000000e+02
0.0000000000000000e+00 1.0000000000000000e+02
0.0000000000000000e+00 1.0000000000000000e+02
ITEM: ATOMS id type x y z q f_ct 
1 1 50 50 50.0094 7.34092 -2.46818 
2 2 50 50 52.9837 -7.34092 2.46818 
ITEM: TIMESTEP
3
ITEM: NUMBER OF ATOMS
2
ITEM: BOX BOUNDS ff ff ff
0.0000000000000000e+00 1.0000000000000000e+02
0.0000000000000000e+00 1.0000000000000000e+02
0.0000000000000000e+00 1.0000000000000000e+02
ITEM: ATOMS id type x y z q f_ct 
1 1 50 50 50.0211 7.14936 -2.42987 
2 2 50 50 52.9634 -7.14936 2.42987 
ITEM: TIMESTEP
4
ITEM: NUMBER OF ATOMS
2
ITEM: BOX BOUNDS ff ff ff
0.0000000000000000e+00 1.0000000000000000e+02
0.0000000000000000e+00 1.0000000000000000e+02
0.0000000000000000e+00 1.0000000000000000e+02
ITEM: ATOMS id type x y z q f_ct 
1 1 50 50 50.0373 6.89388 -2.37878 
2 2 50 50 52.9354 -6.89388 2.37878 
ITEM: TIMESTEP
5
ITEM: NUMBER OF ATOMS
2
ITEM: BOX BOUNDS ff ff ff
0.0000000000000000e+00 1.0000000000000000e+02
0.0000000000000000e+00 1.0000000000000000e+02
0.0000000000000000e+00 1.0000000000000000e+02
ITEM: ATOMS id type x y z q f_ct 
1 1 50 50 50.0578 6.58532 -2.31706 
2 2 50 50 52.8999 -6.58532 2.31706 
ITEM: TIMESTEP
6
ITEM: NUMBER OF ATOMS
2
ITEM: BOX BOUNDS ff ff ff
0.0000000000000000e+00 1.0000000000000000e+02
0.0000000000000000e+00 1.0000000000000000e+02
0.0000000000000000e+00 1.0000000000000000e+02
ITEM: ATOMS id type x y z q f_ct 
1 1 50 50 50.0824 6.23542 -2.24708 
2 2 50 50 52.8573 -6.23542 2.24708 
ITEM: TIMESTEP
7
ITEM: NUMBER OF ATOMS
2
ITEM: BOX BOUNDS ff ff ff
0.0000000000000000e+00 1.0000000000000000e+02
0.0000000000000000e+00 1.0000000000000000e+02
0.0000000000000000e+00 1.0000000000000000e+02
ITEM: ATOMS id type x y z q f_ct 
1 1 50 50 50.1109 5.85586 -2.17117 
2 2 50 50 52.808 -5.85586 2.17117 
ITEM: TIMESTEP
8
ITEM: NUMBER OF ATOMS
2
ITEM: BOX BOUNDS ff ff ff
0.0000000000000000e+00 1.0000000000000000e+02
0.0000000000000000e+00 1.0000000000000000e+02
0.0000000000000000e+00 1.0000000000000000e+02
ITEM: ATOMS id type x y z q f_ct 
1 1 50 50 50.1431 5.45746 -2.09149 
2 2 50 50 52.7524 -5.45746 2.09149 
ITEM: TIMESTEP
9
ITEM: NUMBER OF ATOMS
2
ITEM: BOX BOUNDS ff ff ff
0.0000000000000000e+00 1.0000000000000000e+02
0.0000000000000000e+00 1.0000000000000000e+02
0.0000000000000000e+00 1.0000000000000000e+02
ITEM: ATOMS id type x y z q f_ct 
1 1 50 50 50.1786 5.0497 -2.00994 
2 2 50 50 52.691 -5.0497 2.00994 
ITEM: TIMESTEP
10
ITEM: NUMBER OF ATOMS
2
ITEM: BOX BOUNDS ff ff ff
0.0000000000000000e+00 1.0000000000000000e+02
0.0000000000000000e+00 1.0000000000000000e+02
0.0000000000000000e+00 1.0000000000000000e+02
ITEM: ATOMS id type x y z q f_ct 
1 1 50 50 50.2173 4.64044 -1.92809 
2 2 50 50 52.624 -4.64044 1.92809 
ITEM: TIMESTEP
11
ITEM: NUMBER OF ATOMS
2
ITEM: BOX BOUNDS ff ff ff
0.0000000000000000e+00 1.0000000000000000e+02
0.0000000000000000e+00 1.0000000000000000e+02
0.0000000000000000e+00 1.0000000000000000e+02
ITEM: ATOMS id type x y z q f_ct 
1 1 50 50 50.2589 4.23597 -1.84719 
2 2 50 50 52.5521 -4.23597 1.84719 
ITEM: TIMESTEP
12
ITEM: NUMBER OF ATOMS
2
ITEM: BOX BOUNDS ff ff ff
0.0000000000000000e+00 1.0000000000000000e+02
0.0000000000000000e+00 1.0000000000000000e+02
0.0000000000000000e+00 1.0000000000000000e+02
ITEM: ATOMS id type x y z q f_ct 
1 1 50 50 50.3031 3.84103 -1.76821 
2 2 50 50 52.4754 -3.84103 1.76821 
ITEM: TIMESTEP
13
ITEM: NUMBER OF ATOMS
2
ITEM: BOX BOUNDS ff ff ff
0.0000000000000000e+00 1.0000000000000000e+02
0.0000000000000000e+00 1.0000000000000000e+02
0.0000000000000000e+00 1.0000000000000000e+02
ITEM: ATOMS id type x y z q f_ct 
1 1 50 50 50.3499 3.45906 -1.69181 
2 2 50 50 52.3945 -3.45906 1.69181 
ITEM: TIMESTEP
14
ITEM: NUMBER OF ATOMS
2
ITEM: BOX BOUNDS ff ff ff
0.0000000000000000e+00 1.0000000000000000e+02
0.0000000000000000e+00 1.0000000000000000e+02
0.0000000000000000e+00 1.0000000000000000e+02
ITEM: ATOMS id type x y z q f_ct 
1 1 50 50 50.399 3.09236 -1.61847 
2 2 50 50 52.3096 -3.09236 1.61847 
ITEM: TIMESTEP
15
ITEM: NUMBER OF ATOMS
2
ITEM: BOX BOUNDS ff ff ff
0.0000000000000000e+00 1.0000000000000000e+02
0.0000000000000000e+00 1.0000000000000000e+02
0.0000000000000000e+00 1.0000000000000000e+02
ITEM: ATOMS id type x y z q f_ct 
1 1 50 50 50.4501 2.74235 -1.54847 
2 2 50 50 52.2211 -2.74235 1.54847 
