LAMMPS (7 Aug 2019)
OMP_NUM_THREADS environment is not set. Defaulting to 1 thread. (../comm.cpp:93)
  using 1 OpenMP thread(s) per MPI task
Reading data file ...
  orthogonal box = (0 0 0) to (100 100 100)
  1 by 1 by 1 MPI processor grid
  reading atoms ...
  2 atoms
  read_data CPU = 0.00118816 secs
Neighbor list info ...
  update every 1 steps, delay 0 steps, check yes
  max neighbors/atom: 2000, page size: 100000
  master list distance cutoff = 13
  ghost atom cutoff = 13
  binsize = 6.5, bins = 16 16 16
  1 neighbor lists, perpetual/occasional/extra = 1 0 0
  (1) pair lj/charmmfsw/coul/charmmfsh/bsct, perpetual
      attributes: half, newton on
      pair build: half/bin/atomonly/newton
      stencil: half/bin/3d/newton
      bin: standard
Setting up Verlet run ...
  Unit style    : cgs
  Current step  : 0
  Time step     : 0.1
Per MPI rank memory allocation (min/avg/max) = 4.193 | 4.193 | 4.193 Mbytes
Step Temp E_pair TotEng f_ct E_long E_coul 
       0               0         -9.1875         17.0625           26.25               0         -9.1875 
       1 1.7647267281354e+14 -9.1255540773109 16.959947851151 26.048954868515               0 -9.1255540773109 
       2 6.9754632572944e+14 -8.9437000462531 16.660421218183 25.459661122391               0 -8.9437000462531 
       3 1.5392400642237e+15 -8.6532638084901 16.186920587736 24.521411534671               0 -8.6532638084901 
       4 2.6648431793953e+15 -8.2712127004273 15.573558805784 23.292888985975               0 -8.2712127004273 
       5 4.0290203556234e+15 -7.8178299351184 14.860478439111  21.84390808939               0 -7.8178299351184 
       6 5.582284431502e+15 -7.3143097457447 14.088694275613 20.246926536368               0 -7.3143097457447 
       7 7.2750851989064e+15 -6.7807270752003 13.295874528863 18.569949210578               0 -6.7807270752003 
       8 9.0610145687333e+15 -6.2346349149491 12.513591272704 16.871712179344               0 -6.2346349149491 
       9 1.0898928783879e+16 -5.6903331643786 11.766083398291 15.199275004915               0 -5.6903331643786 
      10 1.2754036538051e+16 -5.1587045252474 11.070245051143 13.587619729209               0 -5.1587045252474 
      11 1.4598151414534e+16 -4.6474457504951 10.436418901547 12.060623113581               0 -4.6474457504951 
      12 1.6409360472827e+16 -4.1615208111639 9.8695914847569 10.632773780838               0 -4.1615208111639 
      13 1.8171346706091e+16 -3.7036973001262 9.3706842713863  9.311140006767               0 -3.7036973001262 
      14 1.9872554616249e+16 -3.2750731945365 8.9377483014584 8.0972639240029               0 -3.2750731945365 
      15 2.1505330863336e+16 -2.8755423974454 8.5669672901365 6.9888081387923               0 -2.8755423974454 
Loop time of 0.00107317 on 1 procs for 15 steps with 2 atoms

100.2% CPU use with 1 MPI tasks x 1 OpenMP threads

MPI task timing breakdown:
Section |  min time  |  avg time  |  max time  |%varavg| %total
---------------------------------------------------------------
Pair    | 5.7139e-06 | 5.7139e-06 | 5.7139e-06 |   0.0 |  0.53
Neigh   | 1.0324e-05 | 1.0324e-05 | 1.0324e-05 |   0.0 |  0.96
Comm    | 4.033e-06  | 4.033e-06  | 4.033e-06  |   0.0 |  0.38
Output  | 0.00049951 | 0.00049951 | 0.00049951 |   0.0 | 46.55
Modify  | 0.00053694 | 0.00053694 | 0.00053694 |   0.0 | 50.03
Other   |            | 1.664e-05  |            |       |  1.55

Nlocal:    2 ave 2 max 2 min
Histogram: 1 0 0 0 0 0 0 0 0 0
Nghost:    0 ave 0 max 0 min
Histogram: 1 0 0 0 0 0 0 0 0 0
Neighs:    1 ave 1 max 1 min
Histogram: 1 0 0 0 0 0 0 0 0 0

Total # of neighbors = 1
Ave neighs/atom = 0.5
Neighbor list builds = 1
Dangerous builds = 0
Total wall time: 0:00:00
